# vtk DataFile Version 4.0
 
ASCII
DATASET UNSTRUCTURED_GRID
POINTS 230 float
0.9916666666666667 0.8344815758971024 0.0
0.975 0.8329111014430649 0.0
0.9583333333333333 0.8306505813193973 0.0
0.9416666666666667 0.8279708362872886 0.0
0.9250000000000002 0.825000512992923 0.0
0.9083333333333334 0.821821470154486 0.0
0.8916666666666667 0.8184935316597066 0.0
0.875 0.8150643407309495 0.0
0.8583333333333334 0.8115671573299277 0.0
0.8416666666666667 0.8080272689718038 0.0
0.825 0.8044630195514972 0.0
0.8083333333333333 0.8008950143230684 0.0
0.7916666666666667 0.7973507744930067 0.0
0.775 0.7938576767315748 0.0
0.7583333333333333 0.7904441845613622 0.0
0.7416666666666667 0.7871325399164462 0.0
0.725 0.783933043374033 0.0
0.7083333333333333 0.7808518716826056 0.0
0.6916666666666667 0.7778920215760385 0.0
0.675 0.7750760717689931 0.0
0.6583333333333333 0.7724479424048106 0.0
0.6416666666666666 0.7700603288682755 0.0
0.625 0.7679728604497712 0.0
0.6083333333333334 0.7662140341096262 0.0
0.5916666666666667 0.7647636136586679 0.0
0.575 0.7635789661160376 0.0
0.5583333333333333 0.7626126860809546 0.0
0.5416666666666667 0.7618246882652511 0.0
0.525 0.7611921423492756 0.0
0.5083333333333333 0.7607064360832507 0.0
0.49018504606023283 0.7603436571026688 0.0
0.47057027212827157 0.7601196673116375 0.0
0.45100087670357925 0.7600725879953875 0.0
0.4315070343754829 0.7601977340516738 0.0
0.4121188032359102 0.7604930495730173 0.0
0.3928660785319915 0.7609508155926451 0.0
0.37377854656975507 0.7615666689891931 0.0
0.3548856389399946 0.7623369165413828 0.0
0.3362164871368899 0.7632528820573216 0.0
0.3177998776393543 0.7643111110615917 0.0
0.2996642075243705 0.7655064473129647 0.0
0.2818374406807562 0.7668347192039429 0.0
0.26434706469087454 0.7682939443435068 0.0
0.24722004844677403 0.769878238143088 0.0
0.2304828005661122 0.77158032864645 0.0
0.21416112867198114 0.773392781934658 0.0
0.19828019959942322 0.7753097202472354 0.0
0.18286450058999557 0.7773255365180124 0.0
0.1679378015342186 0.7794337210021516 0.0
0.15352311832012766 0.7816338917492889 0.0
0.13964267734444172 0.7839227811848584 0.0
0.12631788124107088 0.7862906370337194 0.0
0.11356927587980603 0.7887223523243303 0.0
0.10141651868607689 0.7912033793382351 0.0
0.08987834833062683 0.7937193858170686 0.0
0.07897255583584062 0.7962625753991659 0.0
0.06871595714327763 0.7988289180973984 0.0
0.05912436718470874 0.8014159777446264 0.0
0.050212575496637685 0.8040235553961026 0.0
0.041994323415907975 0.8066298074586054 0.0
0.034482282891557275 0.8091979829050654 0.0
0.02768803694559058 0.8116966753354931 0.0
0.021622061812799798 0.8141103641080469 0.0
0.01629371078716904 0.8164833289824434 0.0
0.011711199799773253 0.8189084017065683 0.0
0.00788159475040795 0.8214626283026569 0.0
0.004810800612483984 0.824210566798511 0.0
0.002503552327986436 0.8271809175438399 0.0
0.0009634075065372838 0.8302688443087307 0.0
0.00019274093981927476 0.8334318229156235 0.0
0.00019274093981927476 0.8366601860673848 0.0
0.0009634075065372838 0.8398231646742775 0.0
0.002503552327986436 0.8429110914391683 0.0
0.004810800612483984 0.8458814421844972 0.0
0.00788159475040795 0.8486293806803512 0.0
0.011711199799773253 0.8511836072764397 0.0
0.01629371078716904 0.8536086800005649 0.0
0.021622061812799798 0.8559816448749613 0.0
0.02768803694559058 0.8583953336475152 0.0
0.034482282891557275 0.8608940260779427 0.0
0.041994323415907975 0.8634622015244028 0.0
0.050212575496637685 0.8660684535869057 0.0
0.05912436718470874 0.8686760312383819 0.0
0.06871595714327763 0.8712630908856098 0.0
0.07897255583584062 0.8738294335838421 0.0
0.08987834833062683 0.8763726231659398 0.0
0.10141651868607689 0.878888629644773 0.0
0.11356927587980603 0.881369656658678 0.0
0.12631788124107088 0.8838013719492888 0.0
0.13964267734444172 0.8861692277981499 0.0
0.15352311832012766 0.8884581172337193 0.0
0.1679378015342186 0.8906582879808567 0.0
0.18286450058999557 0.892766472464996 0.0
0.19828019959942322 0.8947822887357727 0.0
0.21416112867198114 0.89669922704835 0.0
0.2304828005661122 0.8985116803365583 0.0
0.24722004844677403 0.9002137708399202 0.0
0.26434706469087454 0.9017980646395015 0.0
0.2818374406807562 0.9032572897790655 0.0
0.2996642075243705 0.9045855616700434 0.0
0.3177998776393543 0.9057808979214166 0.0
0.3362164871368899 0.9068391269256867 0.0
0.3548856389399946 0.9077550924416254 0.0
0.37377854656975507 0.9085253399938151 0.0
0.3928660785319915 0.9091411933903629 0.0
0.4121188032359102 0.9095989594099909 0.0
0.4315070343754829 0.9098942749313345 0.0
0.45100087670357925 0.9100194209876207 0.0
0.47057027212827157 0.9099723416713706 0.0
0.49018504606023283 0.9097483518803395 0.0
0.5083333333333333 0.9093855728997575 0.0
0.525 0.9088998666337327 0.0
0.5416666666666667 0.9082673207177573 0.0
0.5583333333333333 0.9074793229020539 0.0
0.575 0.9065130428669709 0.0
0.5916666666666667 0.9053283953243403 0.0
0.6083333333333334 0.903877974873382 0.0
0.625 0.9021191485332369 0.0
0.6416666666666666 0.9000316801147328 0.0
0.6583333333333333 0.8976440665781978 0.0
0.675 0.8950159372140154 0.0
0.6916666666666667 0.8921999874069697 0.0
0.7083333333333333 0.8892401373004026 0.0
0.725 0.8861589656089752 0.0
0.7416666666666667 0.882959469066562 0.0
0.7583333333333333 0.8796478244216461 0.0
0.775 0.8762343322514334 0.0
0.7916666666666667 0.8727412344900016 0.0
0.8083333333333333 0.8691969946599397 0.0
0.825 0.8656289894315109 0.0
0.8416666666666667 0.8620647400112044 0.0
0.8583333333333334 0.8585248516530808 0.0
0.875 0.8550276682520591 0.0
0.8916666666666667 0.8515984773233016 0.0
0.9083333333333334 0.8482705388285221 0.0
0.9250000000000002 0.8450914959900853 0.0
0.9416666666666667 0.8421211726957194 0.0
0.9583333333333333 0.839441427663611 0.0
0.975 0.8371809075399432 0.0
0.9916666666666667 0.8356104330859059 0.0
0.000418188750259921 0.009038305835148955 0.0
0.0011885076927950137 0.0175298798566441 0.0
0.0027279578018896272 0.028244810950259082 0.0
0.0050341653570571115 0.038885144050305215 0.0
0.008103574353404681 0.04956326317990986 0.0
0.011931451984735171 0.06005007337738436 0.0
0.01651189594119113 0.07030035526376519 0.0
0.02183784351018893 0.080265234428983 0.0
0.02790108246660955 0.08989560723412592 0.0
0.034692263735454525 0.09914207189483706 0.0
0.042200915807441924 0.10795459596839198 0.0
0.050415460885314706 0.1162820712515968 0.0
0.059323232735964904 0.12407178083500825 0.0
0.068910496220847 0.13126887658798303 0.0
0.07916246847456604 0.13781576492941527 0.0
0.09006334169898451 0.14365120617441393 0.0
0.10159630753770142 0.1487095735889826 0.0
0.11374358299331958 0.15291760179864602 0.0
0.12648643784753844 0.15620055317831472 0.0
0.1398052235417933 0.15845858263930765 0.0
0.15367940347390857 0.1596355070007177 0.0
0.1680875846640495 0.15999260009111113 0.0
0.1830075507411467 0.16001761566462924 0.0
0.19841629619893003 0.16000076051609008 0.0
0.21429006186875166 0.15999781815000774 0.0
0.23060437155450222 0.16000016394561323 0.0
0.24733406977313116 0.1600002827140165 0.0
0.26445336054257795 0.15999995344927626 0.0
0.28193584715730713 0.15999992429731508 0.0
0.2997545728901146 0.16000003728888745 0.0
0.31788206255744744 0.1599999897948779 0.0
0.3362903648841453 0.15999998698380657 0.0
0.3549510956022807 0.159999996 0.0
0.3738354812176431 0.159999996 0.0
0.39291440337638117 0.159999996 0.0
0.4121584437633939 0.159999996 0.0
0.43153792946324054 0.159999996 0.0
0.451022978713625 0.159999996 0.0
0.47058354698090776 0.159999996 0.0
0.49018947328659895 0.159999996 0.0
0.5083333333333333 0.159999996 0.0
0.525 0.159999996 0.0
0.5416666666666667 0.159999996 0.0
0.5583333333333333 0.1600000013429277 0.0
0.575 0.16000003784978378 0.0
0.5916666666666667 0.15999998211583571 0.0
0.6083333333333334 0.15999995977256032 0.0
0.625 0.16000043921220036 0.0
0.6416666666666666 0.15999923604076555 0.0
0.6583333333333333 0.1599990212703074 0.0
0.675 0.16000346117169623 0.0
0.6916666666666667 0.16000716933408154 0.0
0.7083333333333333 0.15997048752585924 0.0
0.725 0.15998477133087424 0.0
0.7416666666666667 0.1602215184553813 0.0
0.7583333333333333 0.15977611985825474 0.0
0.775 0.15692268752531324 0.0
0.7916666666666667 0.1523041739906154 0.0
0.8083333333333333 0.14772189972921557 0.0
0.825 0.14336207531615794 0.0
0.8416666666666667 0.13897783943610031 0.0
0.8583333333333334 0.13455975960536662 0.0
0.875 0.13014956547148793 0.0
0.8916666666666667 0.1257435011218413 0.0
0.9083333333333334 0.12133604958869117 0.0
0.9250000000000002 0.1169276835136692 0.0
0.9416666666666667 0.1125200327643578 0.0
0.9583333333333333 0.10811221299113596 0.0
0.975 0.10370435168703118 0.0
0.9916666666666667 0.09929651170649681 0.0
1.0083002804999999 0.0948974155828145 0.0
1.0249008415 0.09050704435176479 0.0
1.0415014025 0.0861166651210328 0.0
1.0581019635 0.08172629269693676 0.0
1.0747025245000001 0.07733592818390198 0.0
1.0913030854999999 0.07294557528427223 0.0
1.1079036465 0.0685552164446669 0.0
1.1245042075 0.06416484151137987 0.0
1.1411047685 0.059774464855734136 0.0
1.1577053295000002 0.055384093457361325 0.0
1.1743058905 0.05099372586977698 0.0
1.1909064515 0.046603358397562494 0.0
1.2075070125 0.042212995831587885 0.0
1.2241075735 0.03782263363051652 0.0
1.2407081345000002 0.03343226446197825 0.0
1.2573086955 0.02904189177131874 0.0
1.2739092565 0.024651525440295113 0.0
1.2905098175 0.02026117289005007 0.0
1.3071103785 0.015870827663760138 0.0
1.3237109395000002 0.011480470807864532 0.0

CELLS 230 460
1 0
1 1
1 2
1 3
1 4
1 5
1 6
1 7
1 8
1 9
1 10
1 11
1 12
1 13
1 14
1 15
1 16
1 17
1 18
1 19
1 20
1 21
1 22
1 23
1 24
1 25
1 26
1 27
1 28
1 29
1 30
1 31
1 32
1 33
1 34
1 35
1 36
1 37
1 38
1 39
1 40
1 41
1 42
1 43
1 44
1 45
1 46
1 47
1 48
1 49
1 50
1 51
1 52
1 53
1 54
1 55
1 56
1 57
1 58
1 59
1 60
1 61
1 62
1 63
1 64
1 65
1 66
1 67
1 68
1 69
1 70
1 71
1 72
1 73
1 74
1 75
1 76
1 77
1 78
1 79
1 80
1 81
1 82
1 83
1 84
1 85
1 86
1 87
1 88
1 89
1 90
1 91
1 92
1 93
1 94
1 95
1 96
1 97
1 98
1 99
1 100
1 101
1 102
1 103
1 104
1 105
1 106
1 107
1 108
1 109
1 110
1 111
1 112
1 113
1 114
1 115
1 116
1 117
1 118
1 119
1 120
1 121
1 122
1 123
1 124
1 125
1 126
1 127
1 128
1 129
1 130
1 131
1 132
1 133
1 134
1 135
1 136
1 137
1 138
1 139
1 140
1 141
1 142
1 143
1 144
1 145
1 146
1 147
1 148
1 149
1 150
1 151
1 152
1 153
1 154
1 155
1 156
1 157
1 158
1 159
1 160
1 161
1 162
1 163
1 164
1 165
1 166
1 167
1 168
1 169
1 170
1 171
1 172
1 173
1 174
1 175
1 176
1 177
1 178
1 179
1 180
1 181
1 182
1 183
1 184
1 185
1 186
1 187
1 188
1 189
1 190
1 191
1 192
1 193
1 194
1 195
1 196
1 197
1 198
1 199
1 200
1 201
1 202
1 203
1 204
1 205
1 206
1 207
1 208
1 209
1 210
1 211
1 212
1 213
1 214
1 215
1 216
1 217
1 218
1 219
1 220
1 221
1 222
1 223
1 224
1 225
1 226
1 227
1 228
1 229

CELL_TYPES 230
1
1
1
1
1
1
1
1
1
1
1
1
1
1
1
1
1
1
1
1
1
1
1
1
1
1
1
1
1
1
1
1
1
1
1
1
1
1
1
1
1
1
1
1
1
1
1
1
1
1
1
1
1
1
1
1
1
1
1
1
1
1
1
1
1
1
1
1
1
1
1
1
1
1
1
1
1
1
1
1
1
1
1
1
1
1
1
1
1
1
1
1
1
1
1
1
1
1
1
1
1
1
1
1
1
1
1
1
1
1
1
1
1
1
1
1
1
1
1
1
1
1
1
1
1
1
1
1
1
1
1
1
1
1
1
1
1
1
1
1
1
1
1
1
1
1
1
1
1
1
1
1
1
1
1
1
1
1
1
1
1
1
1
1
1
1
1
1
1
1
1
1
1
1
1
1
1
1
1
1
1
1
1
1
1
1
1
1
1
1
1
1
1
1
1
1
1
1
1
1
1
1
1
1
1
1
1
1
1
1
1
1
1
1
1
1
1
1
1
1
1
1
1
1
1
1
1
1
1
1

POINT_DATA 230

VECTORS normal float
0.0675766032804838 -0.9977140886491843 0.0
0.11985523873059539 -0.9927913787643564 0.0
0.14885967902630753 -0.9888583295701081 0.0
0.16858453807900928 -0.9856871986186526 0.0
0.18229946008534742 -0.983243055837462 0.0
0.1924148444642665 -0.9813136744333036 0.0
0.19919994510598024 -0.9799588674376973 0.0
0.2038564810720343 -0.9790007840267173 0.0
0.20685971523011082 -0.9783706139367215 0.0
0.20865754586742175 -0.977988767089165 0.0
0.20959498825575423 -0.9777882904279791 0.0
0.20907907373512422 -0.9778987375623623 0.0
0.20692665484967873 -0.9783564583078714 0.0
0.20332928746968457 -0.9791104130061483 0.0
0.1979552760879007 -0.9802110531252763 0.0
0.19181640547204984 -0.9814308261878583 0.0
0.18523199379598282 -0.9826948196028944 0.0
0.17834107337453775 -0.9839687299643305 0.0
0.17136248200889 -0.9852080489722731 0.0
0.16181752766539864 -0.9868206968544274 0.0
0.14969105575126868 -0.9887328192328151 0.0
0.13390000579487535 -0.9909948478413662 0.0
0.11461905142130022 -0.9934095193077632 0.0
0.09524473255534825 -0.9954538868880167 0.0
0.07813117824947335 -0.9969430871345408 0.0
0.06365758156790394 -0.9979717993555357 0.0
0.052095812347771026 -0.9986420912097714 0.0
0.042355045377583854 -0.9991026224222729 0.0
0.033493619163156456 -0.9994389313386554 0.0
0.0247647324894531 -0.9996933069820593 0.0
0.01592703004609062 -0.9998731568123582 0.0
0.006902706594309858 -0.9999761760370458 0.0
-0.0021052636333277926 -0.9999977839300616 0.0
-0.01075375993696668 -0.9999421766518393 0.0
-0.019733092761601054 -0.9998052835677865 0.0
-0.027837330543456027 -0.9996124664229704 0.0
-0.03669837167760257 -0.9993263878814631 0.0
-0.0448151614491731 -0.9989952959370152 0.0
-0.0532442103020697 -0.9985815209933082 0.0
-0.061544853323582956 -0.9981043187109145 0.0
-0.07005696215171239 -0.9975429925843164 0.0
-0.07862448318981109 -0.9969043036536333 0.0
-0.08774418476104237 -0.9961430409537678 0.0
-0.0965661658948937 -0.9953265673156525 0.0
-0.10588522878275901 -0.9943783577319162 0.0
-0.11496179485059954 -0.9933699138411272 0.0
-0.12484444079311045 -0.9921763278787978 0.0
-0.13461743778756213 -0.9908976463003188 0.0
-0.1452444934995178 -0.9893957939611774 0.0
-0.15672160394255272 -0.9876428194735553 0.0
-0.16890515370187634 -0.9856323092578417 0.0
-0.18126052835101705 -0.9834351126850771 0.0
-0.19373484277087286 -0.9810539285363192 0.0
-0.20661516219718004 -0.9784222885596142 0.0
-0.21981832191452802 -0.9755408271060114 0.0
-0.2347873270054573 -0.9720467638327039 0.0
-0.25114683483979944 -0.9679490003868749 0.0
-0.27027807823501787 -0.9627823016786222 0.0
-0.29210254375919853 -0.9563870053118693 0.0
-0.31327316599683563 -0.9496630578612181 0.0
-0.33459919136297706 -0.9423605367051625 0.0
-0.3567643228261402 -0.9341944219264026 0.0
-0.38407271852613656 -0.9233028467864393 0.0
-0.43208085449392375 -0.9018348713482979 0.0
-0.5070067855102117 -0.8619420626971411 0.0
-0.6065819791694255 -0.7950209447221517 0.0
-0.7287086321153166 -0.6848238674875635 0.0
-0.847933150486214 -0.5301031713794243 0.0
-0.9368993658713091 -0.34959916794800705 0.0
-0.9929465874162172 -0.1185625342951493 0.0
-0.9929465874162168 0.11856253429515334 0.0
-0.9368993658713133 0.349599167947996 0.0
-0.8479331504862055 0.5301031713794381 0.0
-0.7287086321153432 0.6848238674875353 0.0
-0.606581979169377 0.7950209447221886 0.0
-0.5070067855102286 0.861942062697131 0.0
-0.4320808544939565 0.901834871348282 0.0
-0.38407271852613656 0.9233028467864393 0.0
-0.3567643228261261 0.934194421926408 0.0
-0.33459919136296407 0.942360536705167 0.0
-0.3132731659968477 0.9496630578612141 0.0
-0.2921025437592099 0.956387005311866 0.0
-0.27027807823499644 0.962782301678628 0.0
-0.25114683483979944 0.9679490003868749 0.0
-0.2347873270054573 0.9720467638327039 0.0
-0.2198183219145372 0.9755408271060093 0.0
-0.20661516219718004 0.9784222885596142 0.0
-0.19373484277086442 0.9810539285363207 0.0
-0.18126052835102513 0.9834351126850754 0.0
-0.16890515370187634 0.9856323092578417 0.0
-0.15672160394255272 0.9876428194735553 0.0
-0.1452444934995178 0.9893957939611774 0.0
-0.13461743778756924 0.990897646300318 0.0
-0.12484444079308969 0.9921763278788004 0.0
-0.11496179485061306 0.9933699138411257 0.0
-0.10588522878275901 0.9943783577319162 0.0
-0.0965661658948937 0.9953265673156525 0.0
-0.08774418476104237 0.9961430409537678 0.0
-0.07862448318981109 0.9969043036536333 0.0
-0.07005696215171239 0.9975429925843164 0.0
-0.061544853323588986 0.998104318710914 0.0
-0.053244210302063735 0.9985815209933087 0.0
-0.0448151614491731 0.9989952959370152 0.0
-0.03669837167760257 0.9993263878814631 0.0
-0.027837330543450247 0.9996124664229706 0.0
-0.01973309276161253 0.9998052835677862 0.0
-0.010753759936960974 0.9999421766518394 0.0
-0.0021052636333277926 0.9999977839300616 0.0
0.006902706594309858 0.9999761760370458 0.0
0.015927030046084967 0.9998731568123583 0.0
0.02476473248945975 0.9996933069820593 0.0
0.033493619163156456 0.9994389313386554 0.0
0.042355045377583854 0.9991026224222729 0.0
0.05209581234775776 0.9986420912097724 0.0
0.0636575815679238 0.9979717993555345 0.0
0.07813117824947335 0.9969430871345408 0.0
0.09524473255534825 0.9954538868880167 0.0
0.11461905142129368 0.993409519307764 0.0
0.13390000579487535 0.9909948478413662 0.0
0.14969105575126224 0.9887328192328159 0.0
0.16181752766539864 0.9868206968544274 0.0
0.17136248200890275 0.9852080489722708 0.0
0.1783410733745314 0.9839687299643318 0.0
0.18523199379598912 0.9826948196028931 0.0
0.19181640547204984 0.9814308261878583 0.0
0.19795527608788813 0.9802110531252787 0.0
0.2033292874696908 0.979110413006147 0.0
0.20692665484967246 0.9783564583078728 0.0
0.2090790737351367 0.9778987375623599 0.0
0.2095949882557418 0.9777882904279818 0.0
0.20865754586742175 0.977988767089165 0.0
0.2068597152301046 0.978370613936723 0.0
0.20385648107204055 0.9790007840267161 0.0
0.1991999451059865 0.979958867437696 0.0
0.1924148444642602 0.981313674433305 0.0
0.18229946008535378 0.9832430558374611 0.0
0.16858453807901563 0.9856871986186514 0.0
0.1488596790263011 0.988858329570109 0.0
0.11985523873058888 0.9927913787643573 0.0
0.06757660328049041 0.9977140886491838 0.0
-0.9979917736392857 0.06334366383714142 0.0
-0.9944422683805273 0.1052833075952282 0.0
-0.9836828542834346 0.17991120640136676 0.0
-0.9701847456227015 0.24236658053661994 0.0
-0.9508416823507858 0.309677404897947 0.0
-0.9268207747287086 0.375503996691482 0.0
-0.8981169242627179 0.4397567399743583 0.0
-0.8647620289687467 0.5021818726854412 0.0
-0.8267990993893376 0.5624973326594358 0.0
-0.7842848100827106 0.6204009483177202 0.0
-0.7372851982135259 0.6755816282990841 0.0
-0.6858756626195732 0.7277187474747105 0.0
-0.6301325028246463 0.7764876231363557 0.0
-0.5701446994509908 0.8215442907646181 0.0
-0.5060003401710097 0.8625332780518226 0.0
-0.4377835641347743 0.8990803918301489 0.0
-0.3656234239227405 0.9307628655457909 0.0
-0.2893401500953803 0.9572263460346162 0.0
-0.21019556701022488 0.9776593597001207 0.0
-0.12497929924040964 0.9921593494804029 0.0
-0.045228088138167595 0.9989766864363583 0.0
-0.005024267213727854 0.9999873782898289 0.0
0.0015605848951669307 0.9999987822866511 0.0
0.0006413811789030964 0.9999997943150705 0.0
-0.000257831206473093 0.999999966761534 0.0
-3.269805523633259e-5 0.9999999994654186 0.0
1.7890765231871423e-5 0.9999999998399601 0.0
2.05471220503205e-5 0.9999999997889079 0.0
-1.68380633142814e-5 0.9999999998582401 0.0
3.967371314974399e-6 0.9999999999921299 0.0
1.2943697011095077e-6 0.9999999999991621 0.0
-9.725333639697183e-7 0.9999999999995272 0.0
-0.0 1.0 0.0
-0.0 1.0 0.0
-0.0 1.0 0.0
-0.0 1.0 0.0
-0.0 1.0 0.0
-0.0 1.0 0.0
-0.0 1.0 0.0
-0.0 1.0 0.0
-0.0 1.0 0.0
-0.0 1.0 0.0
-0.0 1.0 0.0
-6.41151320368442e-7 0.9999999999997945 0.0
-3.7396714125131186e-6 0.9999999999930075 0.0
1.042774517844222e-5 0.9999999999456312 0.0
-7.74655212952904e-6 0.9999999999699954 0.0
-4.978620461218355e-5 0.999999998760667 0.0
0.00019416677318835423 0.9999999811496318 0.0
-0.00016839431948410802 0.9999999858216765 0.0
-0.0003643938205940737 0.9999999336085695 0.0
-8.058564118986179e-5 0.9999999967529771 0.0
0.004482357598742658 0.9999899541847193 0.0
-0.0061963402734016805 0.9999808024993362 0.0
-0.022207717453306595 0.9997533782316087 0.0
0.07544538853826484 0.9971499352395858 0.0
0.25773859115994213 0.9662146855781526 0.0
0.2762814786320582 0.9610767630969357 0.0
0.25380957355883804 0.9672542066953654 0.0
0.2523378431003088 0.9676391956403398 0.0
0.25645762907464015 0.9665554740879669 0.0
0.25601196781109126 0.9666736121036368 0.0
0.25560284910839637 0.9667818696726114 0.0
0.25556422558573677 0.9667920803361822 0.0
0.25575325811818655 0.9667420912331955 0.0
0.25566339241479513 0.9667658608882288 0.0
0.25567569937028756 0.9667626062025332 0.0
0.2556817193583809 0.9667610141011802 0.0
0.255680202465599 0.9667614152763597 0.0
0.2556794072990819 0.9667616255743656 0.0
0.25567994704986924 0.966761482826336 0.0
0.2556812131466111 0.9667611479801396 0.0
0.2556808178887875 0.9667612525146634 0.0
0.2556804721820225 0.9667613439441908 0.0
0.2556799566970872 0.9667614802749308 0.0
0.25567920795560783 0.966761678294704 0.0
0.25568060331806547 0.9667613092624829 0.0
0.2556809599011657 0.9667612149564228 0.0
0.2556807908125885 0.9667612596755464 0.0
0.2556803875988409 0.9667613663139971 0.0
0.25568037597331406 0.9667613693886121 0.0
0.2556803750397753 0.9667613696355061 0.0
0.2556798418838965 0.9667615106396333 0.0
0.25568033531670387 0.966761380141107 0.0
0.25568060035679396 0.9667613100456542 0.0
0.2556807187319195 0.9667612787388256 0.0
0.25567990805191776 0.9667614931401453 0.0
0.25567921856703213 0.9667616754883035 0.0
0.255679110771535 0.9667617039969454 0.0
0.25568048455702513 0.9667613406713597 0.0

VECTORS tangent float
-0.9977140886491843 -0.0675766032804838 0.0
-0.9927913787643564 -0.11985523873059539 0.0
-0.9888583295701081 -0.14885967902630753 0.0
-0.9856871986186526 -0.16858453807900928 0.0
-0.983243055837462 -0.18229946008534742 0.0
-0.9813136744333036 -0.1924148444642665 0.0
-0.9799588674376973 -0.19919994510598024 0.0
-0.9790007840267173 -0.2038564810720343 0.0
-0.9783706139367215 -0.20685971523011082 0.0
-0.977988767089165 -0.20865754586742175 0.0
-0.9777882904279791 -0.20959498825575423 0.0
-0.9778987375623623 -0.20907907373512422 0.0
-0.9783564583078714 -0.20692665484967873 0.0
-0.9791104130061483 -0.20332928746968457 0.0
-0.9802110531252763 -0.1979552760879007 0.0
-0.9814308261878583 -0.19181640547204984 0.0
-0.9826948196028944 -0.18523199379598282 0.0
-0.9839687299643305 -0.17834107337453775 0.0
-0.9852080489722731 -0.17136248200889 0.0
-0.9868206968544274 -0.16181752766539864 0.0
-0.9887328192328151 -0.14969105575126868 0.0
-0.9909948478413662 -0.13390000579487535 0.0
-0.9934095193077632 -0.11461905142130022 0.0
-0.9954538868880167 -0.09524473255534825 0.0
-0.9969430871345408 -0.07813117824947335 0.0
-0.9979717993555357 -0.06365758156790394 0.0
-0.9986420912097714 -0.052095812347771026 0.0
-0.9991026224222729 -0.042355045377583854 0.0
-0.9994389313386554 -0.033493619163156456 0.0
-0.9996933069820593 -0.0247647324894531 0.0
-0.9998731568123582 -0.01592703004609062 0.0
-0.9999761760370458 -0.006902706594309858 0.0
-0.9999977839300616 0.0021052636333277926 0.0
-0.9999421766518393 0.01075375993696668 0.0
-0.9998052835677865 0.019733092761601054 0.0
-0.9996124664229704 0.027837330543456027 0.0
-0.9993263878814631 0.03669837167760257 0.0
-0.9989952959370152 0.0448151614491731 0.0
-0.9985815209933082 0.0532442103020697 0.0
-0.9981043187109145 0.061544853323582956 0.0
-0.9975429925843164 0.07005696215171239 0.0
-0.9969043036536333 0.07862448318981109 0.0
-0.9961430409537678 0.08774418476104237 0.0
-0.9953265673156525 0.0965661658948937 0.0
-0.9943783577319162 0.10588522878275901 0.0
-0.9933699138411272 0.11496179485059954 0.0
-0.9921763278787978 0.12484444079311045 0.0
-0.9908976463003188 0.13461743778756213 0.0
-0.9893957939611774 0.1452444934995178 0.0
-0.9876428194735553 0.15672160394255272 0.0
-0.9856323092578417 0.16890515370187634 0.0
-0.9834351126850771 0.18126052835101705 0.0
-0.9810539285363192 0.19373484277087286 0.0
-0.9784222885596142 0.20661516219718004 0.0
-0.9755408271060114 0.21981832191452802 0.0
-0.9720467638327039 0.2347873270054573 0.0
-0.9679490003868749 0.25114683483979944 0.0
-0.9627823016786222 0.27027807823501787 0.0
-0.9563870053118693 0.29210254375919853 0.0
-0.9496630578612181 0.31327316599683563 0.0
-0.9423605367051625 0.33459919136297706 0.0
-0.9341944219264026 0.3567643228261402 0.0
-0.9233028467864393 0.38407271852613656 0.0
-0.9018348713482979 0.43208085449392375 0.0
-0.8619420626971411 0.5070067855102117 0.0
-0.7950209447221517 0.6065819791694255 0.0
-0.6848238674875635 0.7287086321153166 0.0
-0.5301031713794243 0.847933150486214 0.0
-0.34959916794800705 0.9368993658713091 0.0
-0.1185625342951493 0.9929465874162172 0.0
0.11856253429515334 0.9929465874162168 0.0
0.349599167947996 0.9368993658713133 0.0
0.5301031713794381 0.8479331504862055 0.0
0.6848238674875353 0.7287086321153432 0.0
0.7950209447221886 0.606581979169377 0.0
0.861942062697131 0.5070067855102286 0.0
0.901834871348282 0.4320808544939565 0.0
0.9233028467864393 0.38407271852613656 0.0
0.934194421926408 0.3567643228261261 0.0
0.942360536705167 0.33459919136296407 0.0
0.9496630578612141 0.3132731659968477 0.0
0.956387005311866 0.2921025437592099 0.0
0.962782301678628 0.27027807823499644 0.0
0.9679490003868749 0.25114683483979944 0.0
0.9720467638327039 0.2347873270054573 0.0
0.9755408271060093 0.2198183219145372 0.0
0.9784222885596142 0.20661516219718004 0.0
0.9810539285363207 0.19373484277086442 0.0
0.9834351126850754 0.18126052835102513 0.0
0.9856323092578417 0.16890515370187634 0.0
0.9876428194735553 0.15672160394255272 0.0
0.9893957939611774 0.1452444934995178 0.0
0.990897646300318 0.13461743778756924 0.0
0.9921763278788004 0.12484444079308969 0.0
0.9933699138411257 0.11496179485061306 0.0
0.9943783577319162 0.10588522878275901 0.0
0.9953265673156525 0.0965661658948937 0.0
0.9961430409537678 0.08774418476104237 0.0
0.9969043036536333 0.07862448318981109 0.0
0.9975429925843164 0.07005696215171239 0.0
0.998104318710914 0.061544853323588986 0.0
0.9985815209933087 0.053244210302063735 0.0
0.9989952959370152 0.0448151614491731 0.0
0.9993263878814631 0.03669837167760257 0.0
0.9996124664229706 0.027837330543450247 0.0
0.9998052835677862 0.01973309276161253 0.0
0.9999421766518394 0.010753759936960974 0.0
0.9999977839300616 0.0021052636333277926 0.0
0.9999761760370458 -0.006902706594309858 0.0
0.9998731568123583 -0.015927030046084967 0.0
0.9996933069820593 -0.02476473248945975 0.0
0.9994389313386554 -0.033493619163156456 0.0
0.9991026224222729 -0.042355045377583854 0.0
0.9986420912097724 -0.05209581234775776 0.0
0.9979717993555345 -0.0636575815679238 0.0
0.9969430871345408 -0.07813117824947335 0.0
0.9954538868880167 -0.09524473255534825 0.0
0.993409519307764 -0.11461905142129368 0.0
0.9909948478413662 -0.13390000579487535 0.0
0.9887328192328159 -0.14969105575126224 0.0
0.9868206968544274 -0.16181752766539864 0.0
0.9852080489722708 -0.17136248200890275 0.0
0.9839687299643318 -0.1783410733745314 0.0
0.9826948196028931 -0.18523199379598912 0.0
0.9814308261878583 -0.19181640547204984 0.0
0.9802110531252787 -0.19795527608788813 0.0
0.979110413006147 -0.2033292874696908 0.0
0.9783564583078728 -0.20692665484967246 0.0
0.9778987375623599 -0.2090790737351367 0.0
0.9777882904279818 -0.2095949882557418 0.0
0.977988767089165 -0.20865754586742175 0.0
0.978370613936723 -0.2068597152301046 0.0
0.9790007840267161 -0.20385648107204055 0.0
0.979958867437696 -0.1991999451059865 0.0
0.981313674433305 -0.1924148444642602 0.0
0.9832430558374611 -0.18229946008535378 0.0
0.9856871986186514 -0.16858453807901563 0.0
0.988858329570109 -0.1488596790263011 0.0
0.9927913787643573 -0.11985523873058888 0.0
0.9977140886491838 -0.06757660328049041 0.0
0.06334366383714142 0.9979917736392857 0.0
0.1052833075952282 0.9944422683805273 0.0
0.17991120640136676 0.9836828542834346 0.0
0.24236658053661994 0.9701847456227015 0.0
0.309677404897947 0.9508416823507858 0.0
0.375503996691482 0.9268207747287086 0.0
0.4397567399743583 0.8981169242627179 0.0
0.5021818726854412 0.8647620289687467 0.0
0.5624973326594358 0.8267990993893376 0.0
0.6204009483177202 0.7842848100827106 0.0
0.6755816282990841 0.7372851982135259 0.0
0.7277187474747105 0.6858756626195732 0.0
0.7764876231363557 0.6301325028246463 0.0
0.8215442907646181 0.5701446994509908 0.0
0.8625332780518226 0.5060003401710097 0.0
0.8990803918301489 0.4377835641347743 0.0
0.9307628655457909 0.3656234239227405 0.0
0.9572263460346162 0.2893401500953803 0.0
0.9776593597001207 0.21019556701022488 0.0
0.9921593494804029 0.12497929924040964 0.0
0.9989766864363583 0.045228088138167595 0.0
0.9999873782898289 0.005024267213727854 0.0
0.9999987822866511 -0.0015605848951669307 0.0
0.9999997943150705 -0.0006413811789030964 0.0
0.999999966761534 0.000257831206473093 0.0
0.9999999994654186 3.269805523633259e-5 0.0
0.9999999998399601 -1.7890765231871423e-5 0.0
0.9999999997889079 -2.05471220503205e-5 0.0
0.9999999998582401 1.68380633142814e-5 0.0
0.9999999999921299 -3.967371314974399e-6 0.0
0.9999999999991621 -1.2943697011095077e-6 0.0
0.9999999999995272 9.725333639697183e-7 0.0
1.0 0.0 0.0
1.0 0.0 0.0
1.0 0.0 0.0
1.0 0.0 0.0
1.0 0.0 0.0
1.0 0.0 0.0
1.0 0.0 0.0
1.0 0.0 0.0
1.0 0.0 0.0
1.0 0.0 0.0
1.0 0.0 0.0
0.9999999999997945 6.41151320368442e-7 0.0
0.9999999999930075 3.7396714125131186e-6 0.0
0.9999999999456312 -1.042774517844222e-5 0.0
0.9999999999699954 7.74655212952904e-6 0.0
0.999999998760667 4.978620461218355e-5 0.0
0.9999999811496318 -0.00019416677318835423 0.0
0.9999999858216765 0.00016839431948410802 0.0
0.9999999336085695 0.0003643938205940737 0.0
0.9999999967529771 8.058564118986179e-5 0.0
0.9999899541847193 -0.004482357598742658 0.0
0.9999808024993362 0.0061963402734016805 0.0
0.9997533782316087 0.022207717453306595 0.0
0.9971499352395858 -0.07544538853826484 0.0
0.9662146855781526 -0.25773859115994213 0.0
0.9610767630969357 -0.2762814786320582 0.0
0.9672542066953654 -0.25380957355883804 0.0
0.9676391956403398 -0.2523378431003088 0.0
0.9665554740879669 -0.25645762907464015 0.0
0.9666736121036368 -0.25601196781109126 0.0
0.9667818696726114 -0.25560284910839637 0.0
0.9667920803361822 -0.25556422558573677 0.0
0.9667420912331955 -0.25575325811818655 0.0
0.9667658608882288 -0.25566339241479513 0.0
0.9667626062025332 -0.25567569937028756 0.0
0.9667610141011802 -0.2556817193583809 0.0
0.9667614152763597 -0.255680202465599 0.0
0.9667616255743656 -0.2556794072990819 0.0
0.966761482826336 -0.25567994704986924 0.0
0.9667611479801396 -0.2556812131466111 0.0
0.9667612525146634 -0.2556808178887875 0.0
0.9667613439441908 -0.2556804721820225 0.0
0.9667614802749308 -0.2556799566970872 0.0
0.966761678294704 -0.25567920795560783 0.0