# vtk DataFile Version 4.0
 
ASCII
DATASET UNSTRUCTURED_GRID
POINTS 345 float
0.9944444444444445 0.8347390584338764 0.0
0.9833333333333335 0.8338735377338001 0.0
0.9722222222222221 0.8326100093373902 0.0
0.9611111111111111 0.8310911130969452 0.0
0.9500000000000001 0.8293777052691178 0.0
0.9388888888888889 0.8275119027234934 0.0
0.9277777777777777 0.8255270997081732 0.0
0.9166666666666667 0.8234454743335063 0.0
0.9055555555555557 0.8212848973061085 0.0
0.8944444444444443 0.8190636658320389 0.0
0.8833333333333333 0.8167949582235164 0.0
0.8722222222222222 0.8144895813050587 0.0
0.8611111111111113 0.8121566620525071 0.0
0.8499999999999999 0.8098037906484018 0.0
0.8388888888888889 0.8074363382225949 0.0
0.8277777777777778 0.8050587896788066 0.0
0.8166666666666667 0.802677539194909 0.0
0.8055555555555556 0.80030006555625 0.0
0.7944444444444445 0.7979349755891735 0.0
0.7833333333333333 0.7955917487132257 0.0
0.7722222222222223 0.7932769861743392 0.0
0.7611111111111111 0.7909988476530498 0.0
0.75 0.7887669853706916 0.0
0.7388888888888889 0.7865836083615807 0.0
0.7277777777777777 0.7844496570868251 0.0
0.7166666666666667 0.7823691424070658 0.0
0.7055555555555555 0.7803421396278363 0.0
0.6944444444444444 0.7783667400766028 0.0
0.6833333333333333 0.7764503042614888 0.0
0.6722222222222223 0.7746090969940088 0.0
0.6611111111111111 0.7728548780433837 0.0
0.65 0.7711997902954961 0.0
0.6388888888888888 0.7696668817176545 0.0
0.6277777777777778 0.7682739903896627 0.0
0.6166666666666667 0.767028830184288 0.0
0.6055555555555556 0.7659303693834872 0.0
0.5944444444444444 0.7649653791494198 0.0
0.5833333333333333 0.7641221463933556 0.0
0.5722222222222222 0.7633888229500226 0.0
0.5611111111111111 0.7627475366723195 0.0
0.55 0.7621860740652975 0.0
0.5388888888888889 0.761697947740731 0.0
0.5277777777777778 0.7612773345881381 0.0
0.5166666666666666 0.7609209041292699 0.0
0.5055555555555555 0.7606292758071567 0.0
0.4934557629230317 0.760386216137207 0.0
0.4803717738622958 0.7601973218997662 0.0
0.4673012370073028 0.7600871159715277 0.0
0.45425311025112536 0.7600566608381911 0.0
0.4412363361280737 0.7601021420751325 0.0
0.4282598356849294 0.7602226477111649 0.0
0.4153325023669054 0.760420821256034 0.0
0.40246319592252333 0.7606919882825939 0.0
0.3896607363315838 0.7610312455766974 0.0
0.37693389776039343 0.7614419968866813 0.0
0.3642914025483891 0.761923007834939 0.0
0.3517419152302824 0.7624691030702128 0.0
0.3392940365978204 0.7630804059903885 0.0
0.32695629780523217 0.7637550490518656 0.0
0.3147371545224025 0.764491211739892 0.0
0.30264498113977745 0.7652886989417025 0.0
0.2906880650289761 0.7661453541525567 0.0
0.2788746008630395 0.7670597247845172 0.0
0.2672126850002111 0.768032568511585 0.0
0.2557103099350978 0.7690629194625612 0.0
0.24437535882101274 0.7701459862151985 0.0
0.23321560006725597 0.7712808167485258 0.0
0.222238682015035 0.7724660948210906 0.0
0.2114521276956735 0.7736976604245764 0.0
0.20086332967470155 0.7749760343210184 0.0
0.19047954498536046 0.7762995185904813 0.0
0.1803078901549947 0.7776641361804596 0.0
0.17035533632773953 0.7790694210450272 0.0
0.16062870448684693 0.7805160443150809 0.0
0.15113466077992457 0.7820032621989648 0.0
0.14187971195029117 0.7835295523718628 0.0
0.13287020087757953 0.7850927689779962 0.0
0.1241123022306437 0.7866878821310428 0.0
0.11561201823574957 0.7883095594908482 0.0
0.10737517456294851 0.7899546630497274 0.0
0.09940741633345435 0.7916186519465542 0.0
0.09171420425075921 0.7932962045035035 0.0
0.08430081085814006 0.7949859401702781 0.0
0.07717231692512092 0.7966875006504521 0.0
0.07033360796536725 0.7983983919603279 0.0
0.06378937088839898 0.8001174692440622 0.0
0.05754409078741667 0.801847091496737 0.0
0.05160204786544287 0.8035877917567484 0.0
0.045967314501884626 0.8053309065078513 0.0
0.0406437524615281 0.8070644406738364 0.0
0.03563501024787788 0.8087784180844417 0.0
0.03094452060265496 0.8104634535301275 0.0
0.026575498153167013 0.8121113058613496 0.0
0.022530937209163354 0.8137192201186778 0.0
0.01881360971068466 0.8152995828426207 0.0
0.015426063328313783 0.8168782904444307 0.0
0.012370619717129439 0.8184850212918705 0.0
0.009649372925559924 0.8201460289420426 0.0
0.007264187960226903 0.8218861268411446 0.0
0.005216699507762962 0.8237309828666118 0.0
0.003508310814479082 0.8256696052312341 0.0
0.0021401927246496866 0.8276883188970123 0.0
0.0011132828780745507 0.8297231818661838 0.0
0.0004282850674672267 0.831836897190224 0.0
8.566875611068503e-5 0.8339967412086519 0.0
8.566875611068503e-5 0.8360952677743567 0.0
0.0004282850674672267 0.8382551117927843 0.0
0.0011132828780745507 0.8403688271168247 0.0
0.0021401927246496866 0.842403690085996 0.0
0.003508310814479082 0.8444224037517745 0.0
0.005216699507762962 0.8463610261163967 0.0
0.007264187960226903 0.8482058821418639 0.0
0.009649372925559924 0.8499459800409656 0.0
0.012370619717129439 0.8516069876911377 0.0
0.015426063328313783 0.8532137185385779 0.0
0.01881360971068466 0.8547924261403876 0.0
0.022530937209163354 0.8563727888643307 0.0
0.026575498153167013 0.8579807031216589 0.0
0.03094452060265496 0.8596285554528811 0.0
0.03563501024787788 0.8613135908985666 0.0
0.0406437524615281 0.8630275683091719 0.0
0.045967314501884626 0.8647611024751571 0.0
0.05160204786544287 0.8665042172262601 0.0
0.05754409078741667 0.8682449174862714 0.0
0.06378937088839898 0.8699745397389462 0.0
0.07033360796536725 0.8716936170226807 0.0
0.07717231692512092 0.8734045083325561 0.0
0.08430081085814006 0.8751060688127302 0.0
0.09171420425075921 0.8767958044795051 0.0
0.09940741633345435 0.8784733570364543 0.0
0.10737517456294851 0.880137345933281 0.0
0.11561201823574957 0.88178244949216 0.0
0.1241123022306437 0.8834041268519657 0.0
0.13287020087757953 0.8849992400050123 0.0
0.14187971195029117 0.8865624566111455 0.0
0.15113466077992457 0.8880887467840437 0.0
0.16062870448684693 0.8895759646679275 0.0
0.17035533632773953 0.8910225879379812 0.0
0.1803078901549947 0.892427872802549 0.0
0.19047954498536046 0.8937924903925272 0.0
0.20086332967470155 0.89511597466199 0.0
0.2114521276956735 0.8963943485584319 0.0
0.222238682015035 0.8976259141619178 0.0
0.23321560006725597 0.8988111922344827 0.0
0.24437535882101274 0.89994602276781 0.0
0.2557103099350978 0.9010290895204474 0.0
0.2672126850002111 0.9020594404714235 0.0
0.2788746008630395 0.9030322841984912 0.0
0.2906880650289761 0.9039466548304518 0.0
0.30264498113977745 0.904803310041306 0.0
0.3147371545224025 0.9056007972431165 0.0
0.32695629780523217 0.9063369599311428 0.0
0.3392940365978204 0.9070116029926201 0.0
0.3517419152302824 0.9076229059127959 0.0
0.3642914025483891 0.9081690011480694 0.0
0.37693389776039343 0.9086500120963271 0.0
0.3896607363315838 0.9090607634063111 0.0
0.40246319592252333 0.9094000207004147 0.0
0.4153325023669054 0.9096711877269744 0.0
0.4282598356849294 0.9098693612718437 0.0
0.4412363361280737 0.909989866907876 0.0
0.45425311025112536 0.9100353481448172 0.0
0.4673012370073028 0.9100048930114808 0.0
0.4803717738622958 0.9098946870832424 0.0
0.4934557629230317 0.9097057928458014 0.0
0.5055555555555555 0.9094627331758518 0.0
0.5166666666666666 0.9091711048537385 0.0
0.5277777777777778 0.9088146743948703 0.0
0.5388888888888889 0.9083940612422776 0.0
0.55 0.9079059349177113 0.0
0.5611111111111111 0.9073444723106892 0.0
0.5722222222222222 0.9067031860329858 0.0
0.5833333333333333 0.9059698625896527 0.0
0.5944444444444444 0.9051266298335886 0.0
0.6055555555555556 0.904161639599521 0.0
0.6166666666666667 0.9030631787987202 0.0
0.6277777777777778 0.9018180185933455 0.0
0.6388888888888888 0.9004251272653541 0.0
0.65 0.8988922186875122 0.0
0.6611111111111111 0.8972371309396246 0.0
0.6722222222222223 0.8954829119889998 0.0
0.6833333333333333 0.8936417047215198 0.0
0.6944444444444444 0.8917252689064057 0.0
0.7055555555555555 0.8897498693551722 0.0
0.7166666666666667 0.8877228665759428 0.0
0.7277777777777777 0.8856423518961833 0.0
0.7388888888888889 0.8835084006214274 0.0
0.75 0.8813250236123169 0.0
0.7611111111111111 0.8790931613299586 0.0
0.7722222222222223 0.8768150228086692 0.0
0.7833333333333333 0.8745002602697827 0.0
0.7944444444444445 0.8721570333938352 0.0
0.8055555555555556 0.8697919434267584 0.0
0.8166666666666667 0.8674144697880993 0.0
0.8277777777777778 0.8650332193042019 0.0
0.8388888888888889 0.8626556707604137 0.0
0.8499999999999999 0.8602882183346068 0.0
0.8611111111111113 0.8579353469305013 0.0
0.8722222222222222 0.8556024276779499 0.0
0.8833333333333333 0.8532970507594921 0.0
0.8944444444444443 0.8510283431509696 0.0
0.9055555555555557 0.8488071116769 0.0
0.9166666666666667 0.8466465346495022 0.0
0.9277777777777777 0.8445649092748353 0.0
0.9388888888888889 0.842580106259515 0.0
0.9500000000000001 0.8407143037138907 0.0
0.9611111111111111 0.8390008958860634 0.0
0.9722222222222221 0.8374819996456182 0.0
0.9833333333333335 0.8362184712492083 0.0
0.9944444444444445 0.835352950549132 0.0
0.0003111648635477006 0.0074094409396687905 0.0
0.0006536266311359868 0.012369541271588734 0.0
0.0013383154601233791 0.01945467885341509 0.0
0.002364762098987475 0.02650658028321998 0.0
0.0037322630724741504 0.03362127650533223 0.0
0.005439881163724345 0.04074118186514869 0.0
0.0074864460565957774 0.04784338166940211 0.0
0.00987055513773908 0.05490012200634835 0.0
0.012590574457878943 0.0618103692775033 0.0
0.01564463985164131 0.06864834416421199 0.0
0.019030658215159264 0.07536868601323482 0.0
0.022746308940581883 0.08192566015227222 0.0
0.026789045506502806 0.08835256430403991 0.0
0.03115609722321898 0.09461248448054671 0.0
0.035844471131622875 0.10067658230568517 0.0
0.04085095405442715 0.10655779698373524 0.0
0.046172114798315914 0.11222684416786169 0.0
0.051804306505513216 0.1176596492572208 0.0
0.057743669153157255 0.12285783668806839 0.0
0.06398613219876703 0.1277975865426058 0.0
0.07052741736998913 0.13245492296381145 0.0
0.07736304159671167 0.13682280922717388 0.0
0.0844883200835367 0.1408817925799889 0.0
0.09189836952050494 0.14460669346006247 0.0
0.09958811142987253 0.1479809918249696 0.0
0.10755227564664599 0.15098695293750408 0.0
0.11578540393048997 0.15359714067444402 0.0
0.12428185370653269 0.15578995017259104 0.0
0.1330358019325048 0.15753772536038801 0.0
0.14204124908956162 0.15880501242036285 0.0
0.15129202329405392 0.15957133510249277 0.0
0.16078178452742842 0.1599085022857492 0.0
0.17050402898135986 0.16000952696720872 0.0
0.18045209351513647 0.16002356812081187 0.0
0.1906191602222437 0.16000714138448607 0.0
0.20099826110301686 0.1599961709894807 0.0
0.2115822828401599 0.15999740848325353 0.0
0.22236397167385785 0.1599995763054468 0.0
0.2333359383731414 0.1600002561950661 0.0
0.24449066330009703 0.16000038785124265 0.0
0.25582050156345054 0.16000012934727986 0.0
0.2673176882579944 0.15999984639977527 0.0
0.2789743437862655 0.15999988034604118 0.0
0.2907824792588275 0.1600000316569752 0.0
0.3027340019694572 0.16000003994150425 0.0
0.3148207209414806 0.15999998542372693 0.0
0.3270343525414593 0.15999997847512765 0.0
0.3393665261563793 0.15999999186247205 0.0
0.3518087899304505 0.159999996 0.0
0.3643526165575873 0.159999996 0.0
0.37698940912559764 0.159999996 0.0
0.3897105070080771 0.159999996 0.0
0.4025071917999702 0.159999996 0.0
0.4153706932927291 0.159999996 0.0
0.4282921954849769 0.159999996 0.0
0.4412628426245546 0.159999996 0.0
0.45427374527781095 0.159999996 0.0
0.4673159864219765 0.159999996 0.0
0.4803806275564456 0.159999996 0.0
0.4934587148287779 0.159999996 0.0
0.5055555555555555 0.159999996 0.0
0.5166666666666666 0.159999996 0.0
0.5277777777777778 0.159999996 0.0
0.5388888888888889 0.159999996 0.0
0.55 0.159999996 0.0
0.5611111111111111 0.1600000013429277 0.0
0.5722222222222222 0.16000002834030563 0.0
0.5833333333333333 0.1600000525250067 0.0
0.5944444444444444 0.15999997513660835 0.0
0.6055555555555556 0.15999985163402963 0.0
0.6166666666666667 0.16000008560619686 0.0
0.6277777777777778 0.16000060862976648 0.0
0.6388888888888888 0.15999982380076927 0.0
0.65 0.15999806425150287 0.0
0.6611111111111111 0.15999887977751476 0.0
0.6722222222222223 0.16000271748340922 0.0
0.6833333333333333 0.16000614735326762 0.0
0.6944444444444444 0.16000756258856674 0.0
0.7055555555555555 0.15998446579631484 0.0
0.7166666666666667 0.15994683682103264 0.0
0.7277777777777777 0.15998449571082646 0.0
0.7388888888888889 0.1601665181839969 0.0
0.75 0.16029609495219044 0.0
0.7611111111111111 0.15972058666219066 0.0
0.7722222222222223 0.15772171390817136 0.0
0.7833333333333333 0.1546645539781684 0.0
0.7944444444444445 0.15146993783216983 0.0
0.8055555555555556 0.14844100999491422 0.0
0.8166666666666667 0.1455384012735981 0.0
0.8277777777777778 0.14264615109310125 0.0
0.8388888888888889 0.13971439281111692 0.0
0.8499999999999999 0.13676760374378594 0.0
0.8611111111111113 0.13382406650329506 0.0
0.8722222222222222 0.13088345162664983 0.0
0.8833333333333333 0.12794638070162337 0.0
0.8944444444444443 0.1250096404652193 0.0
0.9055555555555557 0.12207084384789527 0.0
0.9166666666666667 0.11913162854653438 0.0
0.9277777777777777 0.1161930656642163 0.0
0.9388888888888889 0.11325468072146262 0.0
0.9500000000000001 0.11031615016678611 0.0
0.9611111111111111 0.10737756456265679 0.0
0.9722222222222221 0.10443899261917045 0.0
0.9833333333333335 0.10150042876353486 0.0
0.9944444444444445 0.09856187150794155 0.0
1.0055335203333333 0.09562914466442536 0.0
1.016600561 0.09270223451147758 0.0
1.0276676016666666 0.08977531399904522 0.0
1.0387346423333335 0.08684839422308738 0.0
1.049801683 0.08392147763907215 0.0
1.0608687236666667 0.08099456391283205 0.0
1.0719357643333334 0.07806765455016282 0.0
1.083002805 0.07514074990018621 0.0
1.0940698456666667 0.07221385052314488 0.0
1.1051368863333333 0.06928694627661677 0.0
1.116203927 0.06636003042020489 0.0
1.1272709676666666 0.06343311148379284 0.0
1.1383380083333334 0.06050619361512764 0.0
1.149405049 0.05757927804368487 0.0
1.1604720896666667 0.05465236543710212 0.0
1.1715391303333333 0.05172545378324202 0.0
1.182606171 0.048798542129381915 0.0
1.1936732116666666 0.04587163048409747 0.0
1.2047402523333335 0.04294472178584249 0.0
1.2158072930000001 0.04001781603299129 0.0
1.2268743336666668 0.0370909067118205 0.0
1.2379413743333334 0.03416399315040617 0.0
1.249008415 0.03123707831350616 0.0
1.2600754556666667 0.028310162736040815 0.0
1.2711424963333333 0.025383250531272467 0.0
1.282209537 0.022456346563968093 0.0
1.2932765776666666 0.01952944836473189 0.0
1.3043436183333335 0.016602552441279516 0.0
1.315410659 0.01367565361977583 0.0
1.3264776996666667 0.010748744104391922 0.0

CELLS 345 690
1 0
1 1
1 2
1 3
1 4
1 5
1 6
1 7
1 8
1 9
1 10
1 11
1 12
1 13
1 14
1 15
1 16
1 17
1 18
1 19
1 20
1 21
1 22
1 23
1 24
1 25
1 26
1 27
1 28
1 29
1 30
1 31
1 32
1 33
1 34
1 35
1 36
1 37
1 38
1 39
1 40
1 41
1 42
1 43
1 44
1 45
1 46
1 47
1 48
1 49
1 50
1 51
1 52
1 53
1 54
1 55
1 56
1 57
1 58
1 59
1 60
1 61
1 62
1 63
1 64
1 65
1 66
1 67
1 68
1 69
1 70
1 71
1 72
1 73
1 74
1 75
1 76
1 77
1 78
1 79
1 80
1 81
1 82
1 83
1 84
1 85
1 86
1 87
1 88
1 89
1 90
1 91
1 92
1 93
1 94
1 95
1 96
1 97
1 98
1 99
1 100
1 101
1 102
1 103
1 104
1 105
1 106
1 107
1 108
1 109
1 110
1 111
1 112
1 113
1 114
1 115
1 116
1 117
1 118
1 119
1 120
1 121
1 122
1 123
1 124
1 125
1 126
1 127
1 128
1 129
1 130
1 131
1 132
1 133
1 134
1 135
1 136
1 137
1 138
1 139
1 140
1 141
1 142
1 143
1 144
1 145
1 146
1 147
1 148
1 149
1 150
1 151
1 152
1 153
1 154
1 155
1 156
1 157
1 158
1 159
1 160
1 161
1 162
1 163
1 164
1 165
1 166
1 167
1 168
1 169
1 170
1 171
1 172
1 173
1 174
1 175
1 176
1 177
1 178
1 179
1 180
1 181
1 182
1 183
1 184
1 185
1 186
1 187
1 188
1 189
1 190
1 191
1 192
1 193
1 194
1 195
1 196
1 197
1 198
1 199
1 200
1 201
1 202
1 203
1 204
1 205
1 206
1 207
1 208
1 209
1 210
1 211
1 212
1 213
1 214
1 215
1 216
1 217
1 218
1 219
1 220
1 221
1 222
1 223
1 224
1 225
1 226
1 227
1 228
1 229
1 230
1 231
1 232
1 233
1 234
1 235
1 236
1 237
1 238
1 239
1 240
1 241
1 242
1 243
1 244
1 245
1 246
1 247
1 248
1 249
1 250
1 251
1 252
1 253
1 254
1 255
1 256
1 257
1 258
1 259
1 260
1 261
1 262
1 263
1 264
1 265
1 266
1 267
1 268
1 269
1 270
1 271
1 272
1 273
1 274
1 275
1 276
1 277
1 278
1 279
1 280
1 281
1 282
1 283
1 284
1 285
1 286
1 287
1 288
1 289
1 290
1 291
1 292
1 293
1 294
1 295
1 296
1 297
1 298
1 299
1 300
1 301
1 302
1 303
1 304
1 305
1 306
1 307
1 308
1 309
1 310
1 311
1 312
1 313
1 314
1 315
1 316
1 317
1 318
1 319
1 320
1 321
1 322
1 323
1 324
1 325
1 326
1 327
1 328
1 329
1 330
1 331
1 332
1 333
1 334
1 335
1 336
1 337
1 338
1 339
1 340
1 341
1 342
1 343
1 344

CELL_TYPES 345
1
1
1
1
1
1
1
1
1
1
1
1
1
1
1
1
1
1
1
1
1
1
1
1
1
1
1
1
1
1
1
1
1
1
1
1
1
1
1
1
1
1
1
1
1
1
1
1
1
1
1
1
1
1
1
1
1
1
1
1
1
1
1
1
1
1
1
1
1
1
1
1
1
1
1
1
1
1
1
1
1
1
1
1
1
1
1
1
1
1
1
1
1
1
1
1
1
1
1
1
1
1
1
1
1
1
1
1
1
1
1
1
1
1
1
1
1
1
1
1
1
1
1
1
1
1
1
1
1
1
1
1
1
1
1
1
1
1
1
1
1
1
1
1
1
1
1
1
1
1
1
1
1
1
1
1
1
1
1
1
1
1
1
1
1
1
1
1
1
1
1
1
1
1
1
1
1
1
1
1
1
1
1
1
1
1
1
1
1
1
1
1
1
1
1
1
1
1
1
1
1
1
1
1
1
1
1
1
1
1
1
1
1
1
1
1
1
1
1
1
1
1
1
1
1
1
1
1
1
1
1
1
1
1
1
1
1
1
1
1
1
1
1
1
1
1
1
1
1
1
1
1
1
1
1
1
1
1
1
1
1
1
1
1
1
1
1
1
1
1
1
1
1
1
1
1
1
1
1
1
1
1
1
1
1
1
1
1
1
1
1
1
1
1
1
1
1
1
1
1
1
1
1
1
1
1
1
1
1
1
1
1
1
1
1
1
1
1
1
1
1
1
1
1
1
1
1
1
1
1
1
1
1
1
1
1
1
1
1
1
1
1
1
1
1

POINT_DATA 345

VECTORS normal float
0.055166154579750645 -0.9984771882165776 0.0
0.10003906056145286 -0.9949835105980309 0.0
0.12588227612987743 -0.9920451867512695 0.0
0.14496209677626362 -0.9894372089719634 0.0
0.1598226101429159 -0.9871457507820744 0.0
0.1713676190806488 -0.9852071554402301 0.0
0.18031884046695362 -0.9836082125382309 0.0
0.18795797056166494 -0.9821770722748218 0.0
0.19379045871568207 -0.9810429440706282 0.0
0.1982705925982128 -0.9801473216362699 0.0
0.20183942101325822 -0.979418627617952 0.0
0.2044736475673447 -0.9788720689908897 0.0
0.20649030328263054 -0.9784486469152313 0.0
0.2078385261947759 -0.978163149494594 0.0
0.20894686607160917 -0.9779269948001501 0.0
0.20953841115196728 -0.9778004163692655 0.0
0.20956992972457128 -0.9777936615438035 0.0
0.20890272463206194 -0.9779364251531389 0.0
0.2074846696145732 -0.9782382694798499 0.0
0.2052177301614717 -0.9787163446205308 0.0
0.20268092226471188 -0.9792448334047649 0.0
0.19902526534422785 -0.9799943590422648 0.0
0.19483997473921502 -0.9808350443594591 0.0
0.19079056570932879 -0.9816307656325337 0.0
0.1864239641802614 -0.9824693916755455 0.0
0.18166810932536587 -0.9833599026064398 0.0
0.1772657336759911 -0.9841630249426732 0.0
0.1728138690862582 -0.9849544997873951 0.0
0.16712094253162252 -0.9859364029020036 0.0
0.15983103385552055 -0.9871443869144347 0.0
0.15205789750086757 -0.9883715879200574 0.0
0.14259664512138018 -0.9897808832262457 0.0
0.13072318499465968 -0.9914189068727972 0.0
0.11803486002535118 -0.9930094520289298 0.0
0.10468466844334907 -0.9945054651397878 0.0
0.09206720811141188 -0.995752795221068 0.0
0.08097158450164725 -0.9967164102708918 0.0
0.07036868437283055 -0.9975210515370774 0.0
0.061338942099900436 -0.9981169942356781 0.0
0.05389840894123558 -0.9985464243156666 0.0
0.04703428918119281 -0.9988932754009407 0.0
0.04074248017197152 -0.9991696804394319 0.0
0.034912732886737866 -0.9993903647135984 0.0
0.02921098211597775 -0.9995732682119004 0.0
0.023263347863728353 -0.9997293717032479 0.0
0.017384252238803393 -0.9998488824687948 0.0
0.011484444887873459 -0.9999340515882122 0.0
0.005373787001325282 -0.9999855611023913 0.0
-0.0007120109946141792 -0.9999997465201397 0.0
-0.006283627385342855 -0.9999802578185644 0.0
-0.0122985881472167 -0.9999243695048067 0.0
-0.018369590529940777 -0.9998312648361035 0.0
-0.02377538024405761 -0.9997173256947438 0.0
-0.029219348025788135 -0.9995730236960918 0.0
-0.035314151251421205 -0.9993762608354232 0.0
-0.040743339562513005 -0.999169645396263 0.0
-0.0462253370841245 -0.9989310377656004 0.0
-0.051897387708053 -0.998652422592105 0.0
-0.05732594666866528 -0.9983555157550547 0.0
-0.06297625874993236 -0.9980150253547596 0.0
-0.06866846419734902 -0.9976395351151524 0.0
-0.07428655975262738 -0.9972369362594425 0.0
-0.0800875169257693 -0.996787835816963 0.0
-0.0862146333353542 -0.9962765865957357 0.0
-0.09226589824390333 -0.9957344043575302 0.0
-0.0980108399041964 -0.9951853471897957 0.0
-0.10437267460341712 -0.9945382570802036 0.0
-0.1103856814276151 -0.9938888274529304 0.0
-0.11654443498564512 -0.9931854784852006 0.0
-0.1232322102881207 -0.9923778626851287 0.0
-0.12969667870564294 -0.9915537159088886 0.0
-0.13630408919894324 -0.9906670456150473 0.0
-0.14339296488872888 -0.9896658312887334 0.0
-0.1509091353973518 -0.9885476381306183 0.0
-0.1587008118715752 -0.9873267201445033 0.0
-0.16683377333433042 -0.9859850364356596 0.0
-0.17517853872551373 -0.9845366826939429 0.0
-0.183303249988097 -0.9830564167654882 0.0
-0.1916126894881756 -0.9814706196453912 0.0
-0.20022889996284088 -0.9797491452507987 0.0
-0.208764729784754 -0.9779658928602257 0.0
-0.2174794024386649 -0.9760649105028422 0.0
-0.2271494612868516 -0.9738599089381866 0.0
-0.23738914151633592 -0.9714146362342586 0.0
-0.2482148771730233 -0.9687049988257421 0.0
-0.2601591320029527 -0.9655657543820981 0.0
-0.27393617499831746 -0.9617478734196874 0.0
-0.2886557333728227 -0.9574329572304255 0.0
-0.30275033808983953 -0.95306989921332 0.0
-0.31687675100503526 -0.9484667230179944 0.0
-0.33104769508299864 -0.943614022564435 0.0
-0.34556806788420535 -0.9383936862845877 0.0
-0.36072408065817896 -0.9326725779357466 0.0
-0.37875201664438307 -0.9254981955075943 0.0
-0.4046505492068775 -0.9144713954118917 0.0
-0.4414521782478762 -0.8972847788301134 0.0
-0.4910135271462204 -0.8711519478021204 0.0
-0.5527381328351216 -0.8333550002909585 0.0
-0.6274892012615807 -0.778625264360272 0.0
-0.7117685190105653 -0.7024141053150247 0.0
-0.7887309104747487 -0.6147386036858867 0.0
-0.8648648332193688 -0.5020048010332506 0.0
-0.9197628889905592 -0.3924744934842776 0.0
-0.9742642425324107 -0.2254089299977887 0.0
-0.9966834902948424 -0.08137579599420637 0.0
-0.9966834902948424 0.08137579599420637 0.0
-0.9742642425324107 0.2254089299977887 0.0
-0.9197628889905592 0.3924744934842776 0.0
-0.8648648332193805 0.5020048010332305 0.0
-0.7887309104747153 0.6147386036859298 0.0
-0.7117685190105858 0.7024141053150039 0.0
-0.627489201261557 0.778625264360291 0.0
-0.5527381328351216 0.8333550002909585 0.0
-0.4910135271462457 0.8711519478021059 0.0
-0.4414521782478762 0.8972847788301134 0.0
-0.4046505492068775 0.9144713954118917 0.0
-0.37875201664438307 0.9254981955075943 0.0
-0.36072408065820033 0.9326725779357382 0.0
-0.3455680678841851 0.9383936862845954 0.0
-0.3310476950829794 0.9436140225644417 0.0
-0.3168767510050536 0.9484667230179883 0.0
-0.30275033808983953 0.95306989921332 0.0
-0.2886557333728395 0.9574329572304204 0.0
-0.2739361749982851 0.9617478734196968 0.0
-0.2601591320029683 0.9655657543820938 0.0
-0.2482148771730082 0.9687049988257461 0.0
-0.23738914151632132 0.9714146362342622 0.0
-0.2271494612868939 0.9738599089381768 0.0
-0.21747940243865124 0.9760649105028453 0.0
-0.208764729784754 0.9779658928602257 0.0
-0.20022889996282794 0.9797491452508013 0.0
-0.1916126894881756 0.9814706196453912 0.0
-0.1833032499881092 0.983056416765486 0.0
-0.17517853872550182 0.9845366826939451 0.0
-0.1668337733343421 0.9859850364356577 0.0
-0.1587008118715752 0.9873267201445033 0.0
-0.15090913539734063 0.9885476381306199 0.0
-0.14339296488872888 0.9896658312887334 0.0
-0.1363040891989647 0.9906670456150444 0.0
-0.12969667870563242 0.9915537159088903 0.0
-0.12323221028811036 0.9923778626851302 0.0
-0.11654443498564512 0.9931854784852006 0.0
-0.11038568142762512 0.9938888274529294 0.0
-0.10437267460341712 0.9945382570802036 0.0
-0.0980108399041964 0.9951853471897957 0.0
-0.09226589824390333 0.9957344043575302 0.0
-0.0862146333353542 0.9962765865957357 0.0
-0.08008751692577867 0.9967878358169621 0.0
-0.07428655975260885 0.9972369362594438 0.0
-0.06866846419735818 0.9976395351151518 0.0
-0.06297625874994144 0.9980150253547591 0.0
-0.05732594666866528 0.9983555157550547 0.0
-0.051897387708053 0.998652422592105 0.0
-0.04622533708411564 0.9989310377656005 0.0
-0.040743339562513005 0.999169645396263 0.0
-0.035314151251421205 0.9993762608354232 0.0
-0.029219348025788135 0.9995730236960918 0.0
-0.02377538024405761 0.9997173256947438 0.0
-0.018369590529940777 0.9998312648361035 0.0
-0.0122985881472167 0.9999243695048067 0.0
-0.006283627385342855 0.9999802578185644 0.0
-0.0007120109946056617 0.9999997465201397 0.0
0.005373787001316783 0.9999855611023913 0.0
0.01148444488786497 0.9999340515882122 0.0
0.017384252238820348 0.9998488824687943 0.0
0.023263347863718368 0.9997293717032482 0.0
0.02921098211598773 0.9995732682119003 0.0
0.03491273288672789 0.9993903647135985 0.0
0.04074248017195158 0.9991696804394326 0.0
0.04703428918120277 0.9988932754009402 0.0
0.05389840894122563 0.9985464243156672 0.0
0.061338942099910365 0.9981169942356776 0.0
0.07036868437285038 0.9975210515370759 0.0
0.08097158450164725 0.9967164102708918 0.0
0.09206720811142174 0.995752795221067 0.0
0.10468466844334907 0.9945054651397878 0.0
0.11803486002533159 0.9930094520289322 0.0
0.13072318499464994 0.9914189068727985 0.0
0.14259664512138984 0.9897808832262442 0.0
0.1520578975008579 0.9883715879200589 0.0
0.15983103385552055 0.9871443869144347 0.0
0.16712094253164167 0.9859364029020005 0.0
0.1728138690862582 0.9849544997873951 0.0
0.17726573367597204 0.9841630249426766 0.0
0.1816681093253754 0.9833599026064381 0.0
0.18642396418027085 0.9824693916755439 0.0
0.19079056570933822 0.9816307656325317 0.0
0.19483997473919618 0.9808350443594628 0.0
0.19902526534421847 0.9799943590422667 0.0
0.20268092226473064 0.9792448334047611 0.0
0.20521773016146233 0.9787163446205328 0.0
0.20748466961456385 0.9782382694798519 0.0
0.20890272463208062 0.977936425153135 0.0
0.20956992972457128 0.9777936615438035 0.0
0.20953841115194857 0.9778004163692694 0.0
0.20894686607161855 0.9779269948001482 0.0
0.2078385261947759 0.978163149494594 0.0
0.20649030328261186 0.9784486469152355 0.0
0.2044736475673541 0.9788720689908877 0.0
0.20183942101324884 0.979418627617954 0.0
0.19827059259822222 0.9801473216362679 0.0
0.19379045871568207 0.9810429440706282 0.0
0.18795797056166494 0.9821770722748218 0.0
0.18031884046696312 0.9836082125382289 0.0
0.1713676190806488 0.9852071554402301 0.0
0.1598226101429159 0.9871457507820744 0.0
0.14496209677626362 0.9894372089719634 0.0
0.1258822761298872 0.9920451867512683 0.0
0.10003906056145286 0.9949835105980309 0.0
0.05516615457974071 0.9984771882165782 0.0
-0.9981516787761603 0.06077191914307819 0.0
-0.9973985401555431 0.07208434015506765 0.0
-0.9927405047751913 0.12027589192643048 0.0
-0.9858504443254424 0.1676272693308818 0.0
-0.9778741988937766 0.2091938123794648 0.0
-0.9663347159928172 0.25728819768322286 0.0
-0.9552234861430093 0.2958852674953517 0.0
-0.9388601211901997 0.34429881329845335 0.0
-0.9216806704578193 0.3879494061142829 0.0
-0.9041453231974239 0.4272250396924621 0.0
-0.8813468322133193 0.4724698523160469 0.0
-0.8582847089398336 0.513173809152479 0.0
-0.8343145646945579 0.5512886785872989 0.0
-0.8054839114979558 0.5926176409101852 0.0
-0.7764240834065202 0.6302107922801266 0.0
-0.7462159711598995 0.6657039314784674 0.0
-0.7116540372499613 0.7025300927830996 0.0
-0.6765759572720679 0.7363728498806735 0.0
-0.6403992661435868 0.7680421732709447 0.0
-0.6004205291329395 0.7996844303822108 0.0
-0.5594057081065059 0.8288939942705935 0.0
-0.5173851776703464 0.8557526382822457 0.0
-0.4724877578805929 0.8813372332160774 0.0
-0.42573963097805045 0.904845714259991 0.0
-0.37794350543997307 0.9258286594698529 0.0
-0.3283997585153054 0.9445388285333162 0.0
-0.27618489179876604 0.9611045237340754 0.0
-0.2238632357182785 0.9746205680641787 0.0
-0.16805485073416876 0.9857776458942028 0.0
-0.11108744335661758 0.9938106358499542 0.0
-0.05456474159168529 0.9985102347873217 0.0
-0.01687972156625042 0.9998575273506951 0.0
-0.004051248936303751 0.9999917936573561 0.0
0.0011700129931229133 0.9999993155345637 0.0
0.0020519942357368638 0.9999978946576119 0.0
8.173187108638798e-5 0.9999999966599508 0.0
-0.00031183057871500834 0.9999999513808441 0.0
-9.227510422578433e-5 0.9999999957426525 0.0
-3.216801166556277e-5 0.9999999994826095 0.0
8.238416618658173e-6 0.9999999999660643 0.0
3.717529933853588e-5 0.9999999993089985 0.0
1.2222360815630006e-5 0.9999999999253069 0.0
-1.7846159906641722e-5 0.9999999998407573 0.0
-7.844541421532446e-6 0.9999999999692316 0.0
6.375307579154516e-6 0.9999999999796778 0.0
2.6659105592444533e-6 0.9999999999964465 0.0
-1.50709768798434e-6 0.9999999999988644 0.0
-6.679173366175425e-7 0.999999999999777 0.0
-0.0 1.0 0.0
-0.0 1.0 0.0
-0.0 1.0 0.0
-0.0 1.0 0.0
-0.0 1.0 0.0
-0.0 1.0 0.0
-0.0 1.0 0.0
-0.0 1.0 0.0
-0.0 1.0 0.0
-0.0 1.0 0.0
-0.0 1.0 0.0
-0.0 1.0 0.0
-0.0 1.0 0.0
-0.0 1.0 0.0
-0.0 1.0 0.0
-0.0 1.0 0.0
-0.0 1.0 0.0
-9.617269805524157e-7 0.9999999999995374 0.0
-3.897801049394347e-6 0.9999999999924033 0.0
-4.5544514409851494e-7 0.9999999999998962 0.0
1.4385356841738889e-5 0.9999999998965307 0.0
7.845107326023843e-6 0.9999999999692271 0.0
-4.996009736173405e-5 0.9999999987519942 0.0
-4.418414506452194e-5 0.9999999990238806 0.0
0.00018545336141592513 0.9999999828035251 0.0
0.0001312655022135754 0.9999999913846838 0.0
-0.000278060174734866 0.9999999613412689 0.0
-0.0004127268403659134 0.9999999148282739 0.0
-0.00020464969470662588 0.9999999790592509 0.0
-5.009265478377503e-5 0.9999999987453629 0.0
0.0042074780174713436 0.9999911485251919 0.0
0.002565691845882016 0.9999967086072591 0.0
-0.009343892526970153 0.9999563448833375 0.0
-0.023413324675222457 0.9997258705403459 0.0
9.592644191060523e-5 0.9999999953990588 0.0
0.10294569155994293 0.9946869781942683 0.0
0.2482765241980867 0.9686892006893214 0.0
0.2820511860882577 0.9593993581539477 0.0
0.270561479180927 0.9627026986476296 0.0
0.25540234629809583 0.9668348574112475 0.0
0.2500974122301495 0.9682206795951956 0.0
0.2537160754234321 0.9672787359762083 0.0
0.2565354190803292 0.9665348305970559 0.0
0.2561621817715914 0.9666338172389882 0.0
0.2560067950125572 0.9666749820427745 0.0
0.25568698054733996 0.966759622645973 0.0