# vtk DataFile Version 4.0
 
ASCII
DATASET UNSTRUCTURED_GRID
POINTS 1485 float
0.5055555555555555 0.159999996 0.0
0.5166666666666666 0.159999996 0.0
0.5277777777777778 0.159999996 0.0
0.5388888888888889 0.159999996 0.0
0.55 0.159999996 0.0
0.5611111111111111 0.1600000013429277 0.0
0.5722222222222222 0.16000002834030563 0.0
0.5833333333333333 0.1600000525250067 0.0
0.5944444444444444 0.15999997513660835 0.0
0.6055555555555556 0.15999985163402963 0.0
0.6166666666666667 0.16000008560619686 0.0
0.6277777777777778 0.16000060862976648 0.0
0.6388888888888888 0.15999982380076927 0.0
0.65 0.15999806425150287 0.0
0.6611111111111111 0.15999887977751476 0.0
0.6722222222222223 0.16000271748340922 0.0
0.6833333333333333 0.16000614735326762 0.0
0.6944444444444444 0.16000756258856674 0.0
0.7055555555555555 0.15998446579631484 0.0
0.7166666666666667 0.15994683682103264 0.0
0.7277777777777777 0.15998449571082646 0.0
0.7388888888888889 0.1601665181839969 0.0
0.75 0.16029609495219044 0.0
0.7611111111111111 0.15972058666219066 0.0
0.7722222222222223 0.15772171390817136 0.0
0.7833333333333333 0.1546645539781684 0.0
0.7944444444444445 0.15146993783216983 0.0
0.8055555555555556 0.14844100999491422 0.0
0.8166666666666667 0.1455384012735981 0.0
0.8277777777777778 0.14264615109310125 0.0
0.8388888888888889 0.13971439281111692 0.0
0.8499999999999999 0.13676760374378594 0.0
0.8611111111111113 0.13382406650329506 0.0
0.8722222222222222 0.13088345162664983 0.0
0.8833333333333333 0.12794638070162337 0.0
0.8944444444444443 0.1250096404652193 0.0
0.9055555555555557 0.12207084384789527 0.0
0.9166666666666667 0.11913162854653438 0.0
0.9277777777777777 0.1161930656642163 0.0
0.9388888888888889 0.11325468072146262 0.0
0.9500000000000001 0.11031615016678611 0.0
0.9611111111111111 0.10737756456265679 0.0
0.9722222222222221 0.10443899261917045 0.0
0.9833333333333335 0.10150042876353486 0.0
0.9944444444444445 0.09856187150794155 0.0
1.0055335203333333 0.09562914466442536 0.0
1.016600561 0.09270223451147758 0.0
1.0276676016666666 0.08977531399904522 0.0
1.0387346423333335 0.08684839422308738 0.0
1.049801683 0.08392147763907215 0.0
1.0608687236666667 0.08099456391283205 0.0
1.0719357643333334 0.07806765455016282 0.0
1.083002805 0.07514074990018621 0.0
1.0940698456666667 0.07221385052314488 0.0
1.1051368863333333 0.06928694627661677 0.0
1.116203927 0.06636003042020489 0.0
1.1272709676666666 0.06343311148379284 0.0
1.1383380083333334 0.06050619361512764 0.0
1.149405049 0.05757927804368487 0.0
1.1604720896666667 0.05465236543710212 0.0
1.1715391303333333 0.05172545378324202 0.0
1.182606171 0.048798542129381915 0.0
1.1936732116666666 0.04587163048409747 0.0
1.2047402523333335 0.04294472178584249 0.0
1.2158072930000001 0.04001781603299129 0.0
1.2268743336666668 0.0370909067118205 0.0
1.2379413743333334 0.03416399315040617 0.0
1.249008415 0.03123707831350616 0.0
1.2600754556666667 0.028310162736040815 0.0
1.2711424963333333 0.025383250531272467 0.0
1.282209537 0.022456346563968093 0.0
1.2932765776666666 0.01952944836473189 0.0
1.3043436183333335 0.016602552441279516 0.0
1.315410659 0.01367565361977583 0.0
1.3264776996666667 0.010748744104391922 0.0
1.3431113135000001 0.00928528607 0.0
1.3653115005 0.00928528607 0.0
1.3875116875 0.00928528607 0.0
1.4097118745000001 0.00928528607 0.0
1.4319120615 0.00928528607 0.0
1.4541122485 0.00928528607 0.0
1.4763124355000001 0.00928528607 0.0
1.4985126225 0.00928528607 0.0
1.5207128095 0.00928528607 0.0
1.5429129965000001 0.00928528607 0.0
1.5651131835 0.00928528607 0.0
1.5873133705 0.00928528607 0.0
1.6095135575000001 0.00928528607 0.0
1.6317137445 0.00928528607 0.0
1.6539139315 0.00928528607 0.0
1.6761141185000001 0.00928528607 0.0
1.6983143055 0.00928528607 0.0
1.7205144925 0.00928528607 0.0
1.7427146795 0.00928528607 0.0
1.7649148664999998 0.00928528607 0.0
1.7871150534999998 0.00928528607 0.0
1.8093152405000001 0.00928528607 0.0
1.8315154275 0.00928528607 0.0
1.8537156145 0.00928528607 0.0
1.8759158015000004 0.00928528607 0.0
1.8981159885000003 0.00928528607 0.0
1.9203161755000002 0.00928528607 0.0
1.9425163625000001 0.00928528607 0.0
1.9647165495 0.00928528607 0.0
1.9869167365 0.00928528607 0.0
2.0091169235 0.00928528607 0.0
2.0313171105 0.00928528607 0.0
2.0535172975 0.00928528607 0.0
2.0757174845 0.00928528607 0.0
2.0979176715000003 0.00928528607 0.0
2.1201178585 0.00928528607 0.0
2.1423180455 0.00928528607 0.0
2.1645182325 0.00928528607 0.0
2.1867184195 0.00928528607 0.0
2.2089186065 0.00928528607 0.0
2.2311187935000003 0.00928528607 0.0
2.2533189805 0.00928528607 0.0
2.2755191675 0.00928528607 0.0
2.2977193545 0.00928528607 0.0
2.3199195415 0.00928528607 0.0
2.3421197285 0.00928528607 0.0
2.3643199155000003 0.00928528607 0.0
2.3865201025 0.00928528607 0.0
2.4087202895 0.00928528607 0.0
2.4309204765 0.00928528607 0.0
2.4531206635 0.00928528607 0.0
2.4753208505 0.00928528607 0.0
2.4975210375000003 0.00928528607 0.0
2.5197212245 0.00928528607 0.0
2.5419214115 0.00928528607 0.0
2.5641215985 0.00928528607 0.0
2.5863217855 0.00928528607 0.0
2.6085219725 0.00928528607 0.0
2.6307221595000003 0.00928528607 0.0
2.6529223465 0.00928528607 0.0
0.5055555555555555 0.22009139734450361 0.0
0.5166666666666666 0.2201739675077354 0.0
0.5277777777777778 0.22025569873967024 0.0
0.5388888888888889 0.22033581977472327 0.0
0.55 0.2204135093932588 0.0
0.5611111111111111 0.22048787668250525 0.0
0.5722222222222222 0.2205579386032964 0.0
0.5833333333333333 0.22062259377727203 0.0
0.5944444444444444 0.2206805927892187 0.0
0.6055555555555556 0.2207305044202879 0.0
0.6166666666666667 0.22077066971186743 0.0
0.6277777777777778 0.2207991364611891 0.0
0.6388888888888888 0.2208135935392739 0.0
0.65 0.22081132994594407 0.0
0.6611111111111111 0.22078912062952963 0.0
0.6722222222222223 0.22074299669841663 0.0
0.6833333333333333 0.22066805892804872 0.0
0.6944444444444444 0.22055834541350897 0.0
0.7055555555555555 0.22040655995055092 0.0
0.7166666666666667 0.22020434418717022 0.0
0.7277777777777777 0.2199417686767658 0.0
0.7388888888888889 0.21960447745215475 0.0
0.75 0.21917009236897467 0.0
0.7611111111111111 0.21860923060320672 0.0
0.7722222222222223 0.21789815498229617 0.0
0.7833333333333333 0.21704054155598881 0.0
0.7944444444444445 0.21606573083751773 0.0
0.8055555555555556 0.21500585676369416 0.0
0.8166666666666667 0.21388491147892405 0.0
0.8277777777777778 0.21271861347131182 0.0
0.8388888888888889 0.21151804999457532 0.0
0.8499999999999999 0.21029254894290092 0.0
0.8611111111111113 0.2090502211898923 0.0
0.8722222222222222 0.2077977924824317 0.0
0.8833333333333333 0.20654078922738375 0.0
0.8944444444444443 0.2052837545502281 0.0
0.9055555555555557 0.20403046499591374 0.0
0.9166666666666667 0.20278414991324123 0.0
0.9277777777777777 0.20154760341963845 0.0
0.9388888888888889 0.20032323867183852 0.0
0.9500000000000001 0.19911315252247377 0.0
0.9611111111111111 0.19791918826561025 0.0
0.9722222222222221 0.19674298008278573 0.0
0.9833333333333335 0.19558598550985384 0.0
0.9944444444444445 0.1944495122060207 0.0
1.0055335203333333 0.1933369062401415 0.0
1.016600561 0.192249142425121 0.0
1.0276676016666666 0.1911849271845107 0.0
1.0387346423333335 0.19014513738925592 0.0
1.049801683 0.1891305742602608 0.0
1.0608687236666667 0.18814197003628141 0.0
1.0719357643333334 0.18717999319397755 0.0
1.083002805 0.18624525237853237 0.0
1.0940698456666667 0.18533829924861292 0.0
1.1051368863333333 0.18445963034963575 0.0
1.116203927 0.1836096882580806 0.0
1.1272709676666666 0.18278886210577555 0.0
1.1383380083333334 0.18199748734567073 0.0
1.149405049 0.18123584489023953 0.0
1.1604720896666667 0.18050415974604897 0.0
1.1715391303333333 0.17980259913614616 0.0
1.182606171 0.1791312701313963 0.0
1.1936732116666666 0.1784902167780008 0.0
1.2047402523333335 0.1778794167006024 0.0
1.2158072930000001 0.1772987771360532 0.0
1.2268743336666668 0.17674813036634435 0.0
1.2379413743333334 0.1762272285582459 0.0
1.249008415 0.17573573791500524 0.0
1.2600754556666667 0.17527323202900102 0.0
1.2711424963333333 0.17483918438342982 0.0
1.282209537 0.1744329598954413 0.0
1.2932765776666666 0.17405380536017365 0.0
1.3043436183333335 0.17370083868401254 0.0
1.315410659 0.17337303674657306 0.0
1.3264776996666667 0.17306922168991487 0.0
1.3431113135000001 0.17266982568812161 0.0
1.3653115005 0.17220904609406437 0.0
1.3875116875 0.1718310799706015 0.0
1.4097118745000001 0.17151993421067327 0.0
1.4319120615 0.1712629523193891 0.0
1.4541122485 0.17105005839270354 0.0
1.4763124355000001 0.17087318750469693 0.0
1.4985126225 0.17072585262779738 0.0
1.5207128095 0.17060281259778748 0.0
1.5429129965000001 0.17049981558328814 0.0
1.5651131835 0.1704133994826908 0.0
1.5873133705 0.1703407356014569 0.0
1.6095135575000001 0.1702795054904298 0.0
1.6317137445 0.17022780337555848 0.0
1.6539139315 0.17018405846987988 0.0
1.6761141185000001 0.17014697282833485 0.0
1.6983143055 0.17011547142306827 0.0
1.7205144925 0.17008866187820787 0.0
1.7427146795 0.17006580187741394 0.0
1.7649148664999998 0.17004627269384595 0.0
1.7871150534999998 0.17002955762601213 0.0
1.8093152405000001 0.17001522437999192 0.0
1.8315154275 0.1700029106376204 0.0
1.8537156145 0.1699923122053213 0.0
1.8759158015000004 0.16998317325974333 0.0
1.8981159885000003 0.16997527830195427 0.0
1.9203161755000002 0.16996844550753812 0.0
1.9425163625000001 0.16996252121997563 0.0
1.9647165495 0.16995737538255876 0.0
1.9869167365 0.16995289774241154 0.0
2.0091169235 0.16994899469097802 0.0
2.0313171105 0.16994558663015552 0.0
2.0535172975 0.16994260577332215 0.0
2.0757174845 0.16993999430678447 0.0
2.0979176715000003 0.16993770285040882 0.0
2.1201178585 0.16993568916699275 0.0
2.1423180455 0.16993391707875022 0.0
2.1645182325 0.16993235555650676 0.0
2.1867184195 0.16993097795312495 0.0
2.2089186065 0.16992976135754967 0.0
2.2311187935000003 0.1699286860498737 0.0
2.2533189805 0.1699277350411293 0.0
2.2755191675 0.16992689368424443 0.0
2.2977193545 0.16992614934486183 0.0
2.3199195415 0.16992549112259292 0.0
[...]
POINT_DATA 1485

VECTORS normal float
-0.0 1.0 0.0
-0.0 1.0 0.0
-0.0 1.0 0.0
-0.0 1.0 0.0
-0.0 1.0 0.0
-9.617269805524157e-7 0.9999999999995374 0.0
-3.897801049394347e-6 0.9999999999924033 0.0
-4.5544514409851494e-7 0.9999999999998962 0.0
1.4385356841738889e-5 0.9999999998965307 0.0
7.845107326023843e-6 0.9999999999692271 0.0
-4.996009736173405e-5 0.9999999987519942 0.0
-4.418414506452194e-5 0.9999999990238806 0.0
0.00018545336141592513 0.9999999828035251 0.0
0.0001312655022135754 0.9999999913846838 0.0
-0.000278060174734866 0.9999999613412689 0.0
-0.0004127268403659134 0.9999999148282739 0.0
-0.00020464969470662588 0.9999999790592509 0.0
-5.009265478377503e-5 0.9999999987453629 0.0
0.0042074780174713436 0.9999911485251919 0.0
0.002565691845882016 0.9999967086072591 0.0
-0.009343892526970153 0.9999563448833375 0.0
-0.023413324675222457 0.9997258705403459 0.0
9.592644191060523e-5 0.9999999953990588 0.0
0.10294569155994293 0.9946869781942683 0.0
0.2482765241980867 0.9686892006893214 0.0
0.2820511860882577 0.9593993581539477 0.0
0.270561479180927 0.9627026986476296 0.0
0.25540234629809583 0.9668348574112475 0.0
0.2500974122301495 0.9682206795951956 0.0
0.2537160754234321 0.9672787359762083 0.0
0.2565354190803292 0.9665348305970559 0.0
0.2561621817715914 0.9666338172389882 0.0
0.2560067950125572 0.9666749820427745 0.0
0.25568698054733996 0.966759622645973 0.0
0.25543042085539286 0.9668274407057532 0.0
0.25563319608233304 0.9667738458712728 0.0
0.255764895656028 0.9667390124278947 0.0
0.25570129205890835 0.9667558374478038 0.0
0.25565878822948285 0.9667670784635937 0.0
0.2556723519210719 0.9667634914823517 0.0
0.2556824709058557 0.9667608153372146 0.0
0.2556813052520723 0.9667611236208231 0.0
0.25568024912531245 0.9667614029362251 0.0
0.2556799898352091 0.9667614715108723 0.0
0.255679175686437 0.9667616868289225 0.0
0.25567954184286235 0.9667615899915675 0.0
0.25568096502119153 0.9667612136023207 0.0
0.25568123343048155 0.9667611426156245 0.0
0.25568084476321135 0.9667612454071431 0.0
0.25568071222230837 0.9667612804604317 0.0
0.2556803781206846 0.9667613688206949 0.0
0.25567999970011335 0.9667614689018952 0.0
0.25567960859059785 0.9667615723387842 0.0
0.25567913868835135 0.9667616966137945 0.0
0.25568040372341444 0.9667613620495141 0.0
0.2556810344526063 0.9667611952396749 0.0
0.2556809066527738 0.9667612290391127 0.0
0.2556808601016025 0.9667612413505752 0.0
0.25568053154222803 0.9667613282451277 0.0
0.25568037597331333 0.9667613693886125 0.0
0.25568037597331444 0.9667613693886121 0.0
0.25568037597331333 0.9667613693886125 0.0
0.2556803745730063 0.9667613697589532 0.0
0.2556798947563546 0.9667614966564293 0.0
0.2556798936215111 0.9667614969565622 0.0
0.25568047742301664 0.9667613425580992 0.0
0.2556805860057984 0.9667613138410802 0.0
0.25568068569548735 0.9667612874760168 0.0
0.2556807069317853 0.9667612818596235 0.0
0.2556801349719106 0.9667614331264697 0.0
0.2556793618459341 0.9667616375953567 0.0
0.2556791931105194 0.9667616822207806 0.0
0.25567899023559404 0.9667617358750329 0.0
0.25567966633016603 0.9667615570683885 0.0
0.2556807364270246 0.9667612740589757 0.0
-0.0 1.0 0.0
-0.0 1.0 0.0
-0.0 1.0 0.0
-0.0 1.0 0.0
-0.0 1.0 0.0
-0.0 1.0 0.0
-0.0 1.0 0.0
-0.0 1.0 0.0
-0.0 1.0 0.0
-0.0 1.0 0.0
-0.0 1.0 0.0
-0.0 1.0 0.0
-0.0 1.0 0.0
-0.0 1.0 0.0
-0.0 1.0 0.0
-0.0 1.0 0.0
-0.0 1.0 0.0
-0.0 1.0 0.0
-0.0 1.0 0.0
-0.0 1.0 0.0
-0.0 1.0 0.0
-0.0 1.0 0.0
-0.0 1.0 0.0
-0.0 1.0 0.0
-0.0 1.0 0.0
-0.0 1.0 0.0
-0.0 1.0 0.0
-0.0 1.0 0.0
-0.0 1.0 0.0
-0.0 1.0 0.0
-0.0 1.0 0.0
-0.0 1.0 0.0
-0.0 1.0 0.0
-0.0 1.0 0.0
-0.0 1.0 0.0
-0.0 1.0 0.0
-0.0 1.0 0.0
-0.0 1.0 0.0
-0.0 1.0 0.0
-0.0 1.0 0.0
-0.0 1.0 0.0
-0.0 1.0 0.0
-0.0 1.0 0.0
-0.0 1.0 0.0
-0.0 1.0 0.0
-0.0 1.0 0.0
-0.0 1.0 0.0
-0.0 1.0 0.0
-0.0 1.0 0.0
-0.0 1.0 0.0
-0.0 1.0 0.0
-0.0 1.0 0.0
-0.0 1.0 0.0
-0.0 1.0 0.0
-0.0 1.0 0.0
-0.0 1.0 0.0
-0.0 1.0 0.0
-0.0 1.0 0.0
-0.0 1.0 0.0
-0.0 1.0 0.0
-0.007451963091739259 0.999972233737557 0.0
-0.007410255907109942 0.9999725436767706 0.0
-0.007300967783547828 0.9999733475795357 0.0
-0.007120443419692438 0.999974649321425 0.0
-0.006863345747628896 0.9999764469652016 0.0
-0.006522465914665251 0.9999787284929573 0.0
-0.00608842823312925 0.9999814653490582 0.0
-0.005549304786710502 0.9999846024896504 0.0
-0.00489037343736486 0.9999880420523253 0.0
-0.004093627375074057 0.9999916210723537 0.0
-0.003136075387026299 0.9999950825034924 0.0
-0.0019879201411909485 0.9999980240848039 0.0
-0.0006143498701625571 0.9999998112871007 0.0
0.0010217962520505182 0.9999994779660734 0.0
0.002975866992231394 0.999995572098019 0.0
0.005326351875229407 0.9999858148872418 0.0
0.008162099342448796 0.9999666895123676 0.0
0.011585283822419573 0.99993288834739 0.0
0.015733374276310847 0.999876222806544 0.0
0.02065910540752068 0.9997865779073856 0.0
0.02659067077648903 0.9996464055993279 0.0
0.03409251387136947 0.99941868128324 0.0
0.04403421732766423 0.9990300234248918 0.0
0.056786365596709486 0.9983863524118891 0.0
0.07093631411770171 0.9974808466027779 0.0
0.08296790706180172 0.9965522196040627 0.0
0.09182143119644562 0.9957754891405172 0.0
0.09809101443376253 0.9951774479394896 0.0
0.1026585342692651 0.9947166558079169 0.0
0.10612709690712456 0.9943525729348044 0.0
0.10872323163526758 0.9940720592103893 0.0
0.11053706208691329 0.9938720027776181 0.0
0.11169701919551829 0.9937423086005929 0.0
0.11232147551109241 0.993671920776174 0.0
0.1125049651580698 0.9936511625388366 0.0
0.11232702478880535 0.9936712934879899 0.0
0.11184352675517135 0.9937258301578785 0.0
0.11109504664158978 0.9938097859307399 0.0
0.11011756666199282 0.9939185688538279 0.0
0.10894202420055804 0.9940481051554221 0.0
0.10759296783424309 0.9941950277851018 0.0
0.10609025939192908 0.9943565039070006 0.0
0.10445061603884616 0.9945300743613064 0.0
0.10268819123892163 0.9947135946492733 0.0
0.10081500340900303 0.994905188994229 0.0
0.09884534357700832 0.9951028077807555 0.0
0.09678881532987423 0.9953049408231829 0.0
0.09464933991543338 0.9955106742037338 0.0
0.09243387323158092 0.9957188253113466 0.0
0.09014872785094864 0.9959283141204771 0.0
0.08779970649649978 0.996138148822305 0.0
0.08539222508001743 0.9963474132529695 0.0
0.08293141829377441 0.9965552568020415 0.0
0.08042222663249056 0.99676088680459 0.0
0.07786948195932526 0.9969635619115607 0.0
0.07527795136634623 0.9971625895700691 0.0
0.07265240343036666 0.9973573222650903 0.0
0.06999767703265886 0.9975471543791959 0.0
0.06731872428611911 0.9977315216833084 0.0
0.06462065729616612 0.9979099010685339 0.0
0.06190879260495944 0.9980818109745293 0.0
0.05918869415569251 0.9982468124087066 0.0
0.05646621999977631 0.9984045102056264 0.0
0.0537475689101464 0.9985545547621567 0.0
0.05103933510359651 0.9986966437673568 0.0
0.04834856044403715 0.9988305245150397 0.0
0.04568278771123373 0.9989559964817921 0.0
0.04305012973667047 0.9990729134200644 0.0
0.04045934258513431 0.9991811855702543 0.0
0.037919903960323714 0.9992807818044134 0.0
0.03544210569485404 0.9993717312111218 0.0
0.03303715743287268 0.999454124124142 0.0
0.030717299224030967 0.9995281124252489 0.0
0.02849593415237281 0.9995939084132034 0.0
0.026387777320681927 0.9996517819761409 0.0
0.022816194183053147 0.9997396767574053 0.0
0.01868592707764755 0.9998254028225374 0.0
0.015359712974276305 0.9998820326505262 0.0
0.012668371613249962 0.9999197529605408 0.0
0.010481362646476032 0.9999450690098296 0.0
0.008697204095360156 0.9999621786052327 0.0
0.007236457485540949 0.9999738164987422 0.0
0.006036543571963083 0.9999817799048658 0.0
0.005047876143856272 0.9999872593920567 0.0
0.004230953827595777 0.9999910494747984 0.0
0.003554154564805018 0.9999936839727187 0.0
0.002992050058766536 0.9999955238082049 0.0
0.0025241082609835843 0.9999968144336697 0.0
0.002133687793228482 0.9999977236856097 0.0
0.0018072536956967174 0.9999983669157063 0.0
0.0015337621938753992 0.9999988237860746 0.0
0.0013041754262264062 0.9999991495628672 0.0
0.0011110767458858888 0.9999993827540419 0.0
0.0009483643252627712 0.9999995503024522 0.0
0.0008110060686446934 0.9999996711345243 0.0
0.0006948427795121127 0.9999997585967267 0.0
0.0005964294949745398 0.999999822135913 0.0
0.0005129071466577457 0.9999998684631208 0.0
0.0004418984206399626 0.9999999023628882 0.0
0.00038142300372854946 0.9999999272582434 0.0
0.0003298284178876063 0.9999999456066059 0.0
0.0002857334318879693 0.9999999591782021 0.0
0.0002479816533380244 0.9999999692525492 0.0
0.00021560338552887432 0.9999999767575899 0.0
0.00018778421249813202 0.9999999823685446 0.0
0.00016383907539373787 0.9999999865783787 0.0
0.00014319084122748125 0.9999999897481914 0.0
0.0001253525549262167 0.9999999921433685 0.0
0.00010991271733437066 0.9999999939595975 0.0
9.652305397446156e-5 0.9999999953416501 0.0
8.488833753164283e-5 0.999999996396985 0.0
7.475790660453663e-5 0.9999999972056277 0.0
6.591858765486246e-5 0.9999999978273698 0.0
5.818877947175329e-5 0.9999999983070331 0.0
5.1413502115703187e-5 0.9999999986783259 0.0
4.546024716357077e-5 0.9999999989666829 0.0
4.0215494532725514e-5 0.9999999991913571 0.0
3.558178449553673e-5 0.9999999993669685 0.0
3.147525265277535e-5 0.9999999995046543 0.0
2.7823551327533975e-5 0.9999999996129252 0.0
2.4564093836218615e-5 0.9999999996983026 0.0
2.1642568638921906e-5 0.9999999997657995 0.0
1.9011679320734852e-5 0.9999999998192779 0.0
1.6630073473145836e-5 0.9999999998617204 0.0
1.4461429617084605e-5 0.9999999998954334 0.0
1.2473676308901567e-5 0.9999999999222038 0.0
1.0638321607582618e-5 0.9999999999434132 0.0
8.929874569666243e-6 0.9999999999601286 0.0
7.325343201375998e-6 0.9999999999731697 0.0
5.80379564917283e-6 0.999999999983158 0.0
4.3459733453022075e-6 0.9999999999905563 0.0
2.9339463102060027e-6 0.999999999995696 0.0
1.5508021739236073e-6 0.9999999999987975 0.0
1.8036138003019912e-7 0.9999999999999836 0.0
-1.7665714285876063e-6 0.9999999999984398 0.0
-0.015266309311388431 0.999883463109581 0.0
-0.015243098452019502 0.9998838172255725 0.0
-0.015138203320302588 0.999885410834778 0.0
-0.014948615423410864 0.9998882632059057 0.0
-0.014670097681387441 0.999892388326873 0.0
-0.014297144412287357 0.9998977906074472 0.0
-0.013822932851108976 0.999904458699627 0.0
-0.013239270158054102 0.9999123570221952 0.0
-0.012536541062389635 0.9999214144812536 0.0
-0.011703656319658378 0.9999315098689266 0.0
-0.010728009750656757 0.9999424532475805 0.0
-0.009595485067665603 0.9999539622734219 0.0
-0.00829055296993305 0.9999656327751731 0.0
-0.006796398705852746 0.999976904215608 0.0
-0.005095012062081907 0.9999870203418078 0.0
-0.003167681072441286 0.9999949828857257 0.0
-0.000996010700445414 0.9999995039812193 0.0
0.0014368643512768882 0.9999989677098852 0.0
0.0041447433315097435 0.9999914105144683 0.0
0.0071357942719665595 0.9999745398959458 0.0
0.01041230782894384 0.9999457904535 0.0
0.013965932968423234 0.9999024716022664 0.0
0.017764205693919777 0.9998422040482507 0.0
0.021727581434206004 0.9997639282375714 0.0
0.025714183386694792 0.9996693357169436 0.0
0.029542894197931355 0.9995635134409467 0.0
0.03307476229008537 0.9994528803797877 0.0
0.03623869868815373 0.9993431626410365 0.0
0.039015172837811175 0.9992386182931661 0.0
0.04141209672016473 0.9991421511703125 0.0
0.04344806224353948 0.9990556870801954 0.0
0.04514607715384865 0.9989803960627149 0.0
0.046532171740428716 0.9989167918265862 0.0
0.04763369234126178 0.9988648714185208 0.0
0.04847774508770595 0.9988242629367847 0.0
0.04909020659805504 0.9987943490109265 0.0
0.049495042509116405 0.9987743692982018 0.0
0.04971406880077714 0.9987634912046353 0.0
0.04976701364638048 0.9987608544354953 0.0
0.04967161393714095 0.9987656035171013 0.0
0.049443716282627385 0.9987769114873265 0.0
0.04909742267548203 0.9987939943184604 0.0
0.048645262286970345 0.9988161184407427 0.0
0.04809836180002401 0.998842604013342 0.0
0.04746660675636959 0.9988728253601837 0.0
0.04676023832013014 0.998906141793234 0.0
0.04598754416085568 0.9989420132230166 0.0
0.04515410149369178 0.9989800333932092 0.0
0.044266149845643414 0.9990197735669916 0.0
0.0433293287098244 0.9990608436294338 0.0
0.04234876635472884 0.999102888589675 0.0
0.04132915844993579 0.9991455853186864 0.0
0.04027483748665875 0.999188639579846 0.0
0.03918983385164453 0.999231783382955 0.0
0.03807792942935521 0.9992747726678449 0.0
0.03694270428121237 0.9993173853187939 0.0
0.035787577421359726 0.9993594194794536 0.0
0.03461584224545129 0.9994006921478682 0.0
0.03343069681659625 0.9994410380359398 0.0
0.03223526945056361 0.9994803086621814 0.0
0.03103263988457654 0.9995183716479622 0.0
0.02982585619028031 0.999555110187786 0.0
0.02861794748853752 0.9995904226639746 0.0
0.02741193233745516 0.999624222378353 0.0
0.026210822536283186 0.9996564373733466 0.0
0.02501762182017459 0.9996870103179606 0.0
0.023835318780386125 0.9997158984324684 0.0
0.022666873170579093 0.9997430734247019 0.0
0.021515194314653995 0.9997685214156338 0.0
0.02038310998462618 0.9997922428321571 0.0
0.019273323724954716 0.9998142522451825 0.0
0.018188357995500854 0.999834578134517 0.0
0.01713047982161409 0.9998532625646032 0.0
0.016101604873337956 0.9998703607570848 0.0
0.015103174804716402 0.9998859405506302 0.0
0.013645272394923854 0.9999068989367302 0.0
0.011858555493123254 0.9999296848586988 0.0
0.01025280840728117 0.9999474385785304 0.0
0.00883288102100785 0.9999609893455187 0.0
0.007591150212185584 0.9999711868041278 0.0
0.006513682339778442 0.9999787857461659 0.0
0.005583896100260165 0.9999844099306455 0.0
0.004784685921821895 0.9999885533248016 0.0
0.004099600985970763 0.9999915966005694 0.0
0.0035134497634884757 0.9999938278163318 0.0
0.0030125601857176813 0.9999954622302681 0.0
0.00258483840985311 0.9999966592996176 0.0
0.0022197145904059258 0.9999975364305341 0.0
0.001908029864869624 0.9999981797093608 0.0
0.0016418973090442054 0.9999986520857047 0.0
0.0014145561878113502 0.9999989995148953 0.0
0.001220230460538142 0.9999992555185343 0.0
0.0010539973317389088 0.9999994445446581 0.0
0.0009116684901707664 0.9999995844301958 0.0
0.0007896848056616375 0.9999996881989054 0.0
0.0006850241785825585 0.99999976537091 0.0
0.0005951216596534437 0.9999998229150895 0.0
0.0005178006863115936 0.9999998659412155 0.0
0.0004512141937130554 0.9999998982028707 0.0
0.000393794376813819 0.9999999224629914 0.0
0.0003442099565001756 0.9999999407597514 0.0
0.0003013299074453392 0.9999999546001425 0.0
0.0002641927198422985 0.9999999651011028 0.0
0.00023198038126860646 0.9999999730925511 0.0
0.00020399637208543903 0.99999997919274 0.0
0.00017964706566172306 0.9999999838634658 0.0
0.00015842601190471376 0.9999999874505993 0.0
0.00013990065901085827 0.9999999902139026 0.0
0.00012370113507196846 0.9999999923490146 0.0
0.00010951076825210935 0.999999994003696 0.0
9.705807373862742e-5 0.9999999952898653 0.0
8.610997739251974e-5 0.9999999962925359 0.0
7.646608193701121e-5 0.9999999970764692 0.0
6.795381201373458e-5 0.9999999976911398 0.0
6.042429984042856e-5 0.9999999981744521 0.0
5.3748895438135825e-5 0.999999998555528 0.0
4.7816203366801986e-5 0.9999999988568056 0.0
4.252956370858383e-5 0.9999999990956181 0.0
3.780490793058978e-5 0.9999999992853942 0.0
3.356893122090761e-5 0.9999999994365637 0.0
2.975753214349613e-5 0.9999999995572446 0.0
2.6314478086459587e-5 0.9999999996537743 0.0
2.319026152701391e-5 0.9999999997311059 0.0
2.034111737993091e-5 0.9999999997931196 0.0
1.7728176469652514e-5 0.9999999998428559 0.0
1.5316733616956534e-5 0.9999999998826988 0.0
1.3075612416724921e-5 0.9999999999145142 0.0
1.0976611008787461e-5 0.999999999939757 0.0
8.994015749333435e-6 0.9999999999595539 0.0
7.10417124566917e-6 0.9999999999747654 0.0
5.285096962432839e-6 0.9999999999860338 0.0
3.5161417401071292e-6 0.9999999999938184 0.0
1.7776686968788224e-6 0.9999999999984199 0.0
5.076371003401403e-8 0.9999999999999986 0.0
-2.4981046451914393e-6 0.9999999999968797 0.0
-0.024316671251436463 0.9997043060321633 0.0
-0.024358072101601756 0.9997032981457514 0.0
-0.024335504686900322 0.9997038477527401 0.0
-0.024247498074721676 0.9997059861964998 0.0
-0.024091969553190422 0.9997097463779415 0.0
-0.02386625426537115 0.9997151603868677 0.0
-0.02356714974849081 0.9997222561555446 0.0
-0.023190977874681034 0.9997310531063923 0.0
-0.02273366727541004 0.9997415567896588 0.0
-0.022190859951340947 0.9997537525484061 0.0
-0.021558046599379724 0.9997675983081364 0.0
-0.02083073598501684 0.9997830166782804 0.0
-0.020004663555327776 0.9997998866953517 0.0
-0.01907604374915166 0.9998180357219408 0.0
-0.018041872016171887 0.9998372321803943 0.0
-0.016900285638673015 0.9998571799738858 0.0
-0.015650983245071297 0.999877515860549 0.0
-0.014295692215665822 0.9998978113707794 0.0
-0.01283867196811658 0.9999175808545897 0.0
-0.011287234679428519 0.9999362971376183 0.0
-0.009652242297192092 0.9999534160242848 0.0
-0.007948602247064484 0.9999684093621748 0.0
-0.006195654054211707 0.9999808067512298 0.0
-0.004417109642238083 0.9999902445236195 0.0
-0.0026399679650105667 0.9999965152785003 0.0
-0.0008920237217744415 0.9999996021467608 0.0
0.0008014704119871843 0.9999996788225377 0.0
0.00242002679528373 0.9999970717308677 0.0
0.003948579423423853 0.9999922043298821 0.0
0.00537709831528085 0.9999855433023558 0.0
0.006699786609439272 0.9999775561778314 0.0
0.007914251372930453 0.9999686818221889 0.0
0.009020762684338626 0.9999593120925433 0.0
0.010021595184247962 0.9999497825540854 0.0
0.010920457804153398 0.9999403700228066 0.0
0.011722018206061646 0.9999312947843848 0.0
0.012431519275536877 0.9999227256785906 0.0
0.013054482275062526 0.9999147866156044 0.0
0.013596485331194558 0.999907563521068 0.0
0.014063002746570808 0.9999011110873663 0.0
0.0144592930385499 0.9998954589579979 0.0
0.014790326220485385 0.999890617142841 0.0
0.015060741985860441 0.9998865805934368 0.0
0.015274831511058106 0.9998833329555549 0.0
0.015436536887762328 0.9998808495660433 0.0
0.015549244642293843 0.9998791031875075 0.0
0.015616587552028183 0.9998780536611602 0.0
0.015641760967542783 0.9998776601734007 0.0
0.015627476758448382 0.9998778835288658 0.0
0.015576223589351028 0.9998786832704727 0.0
0.015490298235440722 0.9998800181324643 0.0
0.01537183590852823 0.999881846350258 0.0
0.015222838836462863 0.9998841258754732 0.0
0.015045202573045879 0.9998868145342932 0.0
0.01484073970333096 0.999889870158238 0.0
0.014611200754460022 0.999893250708551 0.0
0.014358292237959513 0.9998969144086852 0.0
0.014083691828668837 0.9999008198938908 0.0
0.013789060741837441 0.9999049263824327 0.0
0.013476053411050428 0.9999091938693546 0.0
0.013146324596122494 0.9999135833408872 0.0
0.012801534064019047 0.9999180570054768 0.0
0.012443348993136007 0.9999225785358761 0.0
0.012073444254485147 0.9999271133156825 0.0
0.011693500726803087 0.9999316286830576 0.0
0.011305201810520358 0.9999360941640338 0.0
0.010910228323784642 0.9999404816877465 0.0
0.010510251996021411 0.9999447657760803 0.0
0.010106927826445199 0.9999489237005614 0.0
0.009701885657164403 0.9999529355998188 0.0
0.009296721432527064 0.9999567845515153 0.0
0.008892988791854234 0.9999604565933335 0.0
0.008492191888906908 0.9999639406883241 0.0
0.008095780672598703 0.9999672286306693 0.0
0.007705150327186881 0.9999703148886148 0.0
0.007127588020557539 0.9999745984218847 0.0
0.006394986038825525 0.9999795518677188 0.0
0.005707984456432453 0.9999837093240297 0.0
0.005072511301556348 0.9999871347317902 0.0
0.004491515973272675 0.9999899130912581 0.0
0.003965458166050386 0.9999921375398577 0.0
0.003492928238089994 0.999993899707555 0.0
0.0030712325855927263 0.9999952837540811 0.0
0.0026968812278660905 0.999996363409209 0.0
0.0023659648425616605 0.9999972011012652 0.0
0.002074430530281673 0.9999978483666726 0.0
0.0018182734705615201 0.9999983469394269 0.0
0.001593662733880877 0.9999987301187391 0.0
0.0013970176849048123 0.9999990241703178 0.0
0.0012250485913138747 0.9999992496276929 0.0
0.001074772162167343 0.999999422432233 0.0
0.0009435101705100649 0.9999995548941799 0.0
0.0008288771924594179 0.9999996564812409 0.0
0.0007287618171043114 0.9999997344530718 0.0
0.0006413043958507664 0.9999997943643147 0.0