# vtk DataFile Version 4.0
 
ASCII
DATASET UNSTRUCTURED_GRID
POINTS 990 float
0.5083333333333333 0.159999996 0.0
0.525 0.159999996 0.0
0.5416666666666667 0.159999996 0.0
0.5583333333333333 0.1600000013429277 0.0
0.575 0.16000003784978378 0.0
0.5916666666666667 0.15999998211583571 0.0
0.6083333333333334 0.15999995977256032 0.0
0.625 0.16000043921220036 0.0
0.6416666666666666 0.15999923604076555 0.0
0.6583333333333333 0.1599990212703074 0.0
0.675 0.16000346117169623 0.0
0.6916666666666667 0.16000716933408154 0.0
0.7083333333333333 0.15997048752585924 0.0
0.725 0.15998477133087424 0.0
0.7416666666666667 0.1602215184553813 0.0
0.7583333333333333 0.15977611985825474 0.0
0.775 0.15692268752531324 0.0
0.7916666666666667 0.1523041739906154 0.0
0.8083333333333333 0.14772189972921557 0.0
0.825 0.14336207531615794 0.0
0.8416666666666667 0.13897783943610031 0.0
0.8583333333333334 0.13455975960536662 0.0
0.875 0.13014956547148793 0.0
0.8916666666666667 0.1257435011218413 0.0
0.9083333333333334 0.12133604958869117 0.0
0.9250000000000002 0.1169276835136692 0.0
0.9416666666666667 0.1125200327643578 0.0
0.9583333333333333 0.10811221299113596 0.0
0.975 0.10370435168703118 0.0
0.9916666666666667 0.09929651170649681 0.0
1.0083002804999999 0.0948974155828145 0.0
1.0249008415 0.09050704435176479 0.0
1.0415014025 0.0861166651210328 0.0
1.0581019635 0.08172629269693676 0.0
1.0747025245000001 0.07733592818390198 0.0
1.0913030854999999 0.07294557528427223 0.0
1.1079036465 0.0685552164446669 0.0
1.1245042075 0.06416484151137987 0.0
1.1411047685 0.059774464855734136 0.0
1.1577053295000002 0.055384093457361325 0.0
1.1743058905 0.05099372586977698 0.0
1.1909064515 0.046603358397562494 0.0
1.2075070125 0.042212995831587885 0.0
1.2241075735 0.03782263363051652 0.0
1.2407081345000002 0.03343226446197825 0.0
1.2573086955 0.02904189177131874 0.0
1.2739092565 0.024651525440295113 0.0
1.2905098175 0.02026117289005007 0.0
1.3071103785 0.015870827663760138 0.0
1.3237109395000002 0.011480470807864532 0.0
1.34866136025 0.00928528607 0.0
1.3819616407500002 0.00928528607 0.0
1.41526192125 0.00928528607 0.0
1.4485622017500002 0.00928528607 0.0
1.48186248225 0.00928528607 0.0
1.5151627627500002 0.00928528607 0.0
1.54846304325 0.00928528607 0.0
1.5817633237500002 0.00928528607 0.0
1.61506360425 0.00928528607 0.0
1.6483638847500004 0.00928528607 0.0
1.68166416525 0.00928528607 0.0
1.7149644457500002 0.00928528607 0.0
1.74826472625 0.00928528607 0.0
1.7815650067500002 0.00928528607 0.0
1.8148652872500002 0.00928528607 0.0
1.84816556775 0.00928528607 0.0
1.88146584825 0.00928528607 0.0
1.9147661287500002 0.00928528607 0.0
1.94806640925 0.00928528607 0.0
1.9813666897500004 0.00928528607 0.0
2.01466697025 0.00928528607 0.0
2.04796725075 0.00928528607 0.0
2.08126753125 0.00928528607 0.0
2.11456781175 0.00928528607 0.0
2.14786809225 0.00928528607 0.0
2.18116837275 0.00928528607 0.0
2.21446865325 0.00928528607 0.0
2.24776893375 0.00928528607 0.0
2.28106921425 0.00928528607 0.0
2.31436949475 0.00928528607 0.0
2.34766977525 0.00928528607 0.0
2.38097005575 0.00928528607 0.0
2.41427033625 0.00928528607 0.0
2.44757061675 0.00928528607 0.0
2.48087089725 0.00928528607 0.0
2.51417117775 0.00928528607 0.0
2.54747145825 0.00928528607 0.0
2.58077173875 0.00928528607 0.0
2.61407201925 0.00928528607 0.0
2.64737229975 0.00928528607 0.0
0.5083333333333333 0.2201120231631248 0.0
0.525 0.22023513433177175 0.0
0.5416666666666667 0.22035504118915156 0.0
0.5583333333333333 0.22046895371507033 0.0
0.575 0.2205736978867228 0.0
0.5916666666666667 0.22066553022845287 0.0
0.6083333333333334 0.22073991123101247 0.0
0.625 0.2207911885560323 0.0
0.6416666666666666 0.22081214886192316 0.0
0.6583333333333333 0.22079357020124668 0.0
0.675 0.2207232482297063 0.0
0.6916666666666667 0.2205845985871895 0.0
0.7083333333333333 0.22035519496963746 0.0
0.725 0.22000700068788437 0.0
0.7416666666666667 0.2194980667342867 0.0
0.7583333333333333 0.21875069379885975 0.0
0.775 0.2176826257880605 0.0
0.7916666666666667 0.2163081166210414 0.0
0.8083333333333333 0.21472343862025509 0.0
0.825 0.21300832115980328 0.0
0.8416666666666667 0.21120964243383236 0.0
0.8583333333333334 0.20935933474640814 0.0
0.875 0.20748227769651945 0.0
0.8916666666666667 0.20559723448649753 0.0
0.9083333333333334 0.2037183257614702 0.0
0.9250000000000002 0.20185655053687754 0.0
0.9416666666666667 0.20002071214401201 0.0
0.9583333333333333 0.1982179418273901 0.0
0.975 0.19645412628667705 0.0
0.9916666666666667 0.1947342091995608 0.0
1.0083002804999999 0.1930656135080086 0.0
1.0249008415 0.19145174242386237 0.0
1.0415014025 0.18989228873126296 0.0
1.0581019635 0.18838996247850984 0.0
1.0747025245000001 0.1869471289887884 0.0
1.0913030854999999 0.1855658438850129 0.0
1.1079036465 0.18424787494660744 0.0
1.1245042075 0.18299471391119917 0.0
1.1411047685 0.18180758000261382 0.0
1.1577053295000002 0.1806874158778134 0.0
1.1743058905 0.17963487713714377 0.0
1.1909064515 0.1786503160108929 0.0
1.2075070125 0.17773375924953438 0.0
1.2241075735 0.17688487977697753 0.0
1.2407081345000002 0.17610296167624276 0.0
1.2573086955 0.1753868577409074 0.0
1.2739092565 0.17473493828423367 0.0
1.2905098175 0.17414502965516052 0.0
1.3071103785 0.17361434053993047 0.0
1.3237109395000002 0.17313937366438653 0.0
1.34866136025 0.17255490532630258 0.0
1.3819616407500002 0.17192639837533175 0.0
1.41526192125 0.17145739664971188 0.0
1.4485622017500002 0.17110483966083193 0.0
1.48186248225 0.17083806953849376 0.0
1.5151627627500002 0.17063500555520705 0.0
1.54846304325 0.1704795845491346 0.0
1.5817633237500002 0.17036001847503962 0.0
1.61506360425 0.1702675899667879 0.0
1.6483638847500004 0.17019580849429708 0.0
1.68166416525 0.17013981208833456 0.0
1.7149644457500002 0.17009593870075335 0.0
1.74826472625 0.17006141624698454 0.0
1.7815650067500002 0.17003413662817818 0.0
1.8148652872500002 0.17001248977932376 0.0
1.84816556775 0.1699952410086085 0.0
1.88146584825 0.1699814398092646 0.0
1.9147661287500002 0.1699703517154029 0.0
1.94806640925 0.1699614071383025 0.0
1.9813666897500004 0.16995416278663544 0.0
2.01466697025 0.16994827246030408 0.0
2.04796725075 0.1699434648589321 0.0
2.08126753125 0.16993952666187656 0.0
2.11456781175 0.16993628958521723 0.0
2.14786809225 0.1699336204500051 0.0
2.18116837275 0.169931413538424 0.0
2.21446865325 0.1699295846940509 0.0
2.24776893375 0.16992806675596817 0.0
2.28106921425 0.16992680601625493 0.0
2.31436949475 0.16992575946519345 0.0
2.34766977525 0.16992489264483335 0.0
2.38097005575 0.16992417797408652 0.0
2.41427033625 0.1699235934407785 0.0
2.44757061675 0.16992312158063475 0.0
2.48087089725 0.16992274868195084 0.0
2.51417117775 0.16992246416911433 0.0
2.54747145825 0.16992226012928519 0.0
2.58077173875 0.16992213095521486 0.0
2.61407201925 0.1699220730840117 0.0
2.64737229975 0.1699221010641458 0.0
0.5083333333333333 0.28022721483030866 0.0
0.525 0.2804808531453883 0.0
0.5416666666666667 0.280731322810103 0.0
0.5583333333333333 0.2809753584907654 0.0
0.575 0.2812094029543606 0.0
0.5916666666666667 0.28142949618505525 0.0
0.6083333333333334 0.28163115813501327 0.0
0.625 0.28180926537750006 0.0
0.6416666666666666 0.2819579257215803 0.0
0.6583333333333333 0.2820703609024089 0.0
0.675 0.2821388057904396 0.0
0.6916666666666667 0.2821544642660793 0.0
0.7083333333333333 0.28210758888917686 0.0
0.725 0.281987763781544 0.0
0.7416666666666667 0.28178436895894576 0.0
0.7583333333333333 0.28148769517447203 0.0
0.775 0.28109215764695594 0.0
0.7916666666666667 0.2806004041546678 0.0
0.8083333333333333 0.28002290202467267 0.0
0.825 0.2793735227957123 0.0
0.8416666666666667 0.27866634576562777 0.0
0.8583333333333334 0.2779144400006558 0.0
0.875 0.27712948296329726 0.0
0.8916666666666667 0.27632164600403586 0.0
0.9083333333333334 0.27549964580692876 0.0
0.9250000000000002 0.2746708884309913 0.0
0.9416666666666667 0.27384164050132287 0.0
0.9583333333333333 0.2730171953573123 0.0
0.975 0.2722020245936191 0.0
0.9916666666666667 0.2713999101364233 0.0
1.0083002804999999 0.27061557839326555 0.0
1.0249008415 0.2698516628049059 0.0
1.0415014025 0.26910885224140646 0.0
1.0581019635 0.2683890837735937 0.0
1.0747025245000001 0.2676939970460205 0.0
1.0913030854999999 0.26702497118852575 0.0
1.1079036465 0.2663831531978297 0.0
1.1245042075 0.2657694792924534 0.0
1.1411047685 0.2651846905220533 0.0
1.1577053295000002 0.2646293437252654 0.0
1.1743058905 0.2641038188048104 0.0
1.1909064515 0.26360832319750055 0.0
1.2075070125 0.2631428943659494 0.0
1.2241075735 0.2627074011438004 0.0
1.2407081345000002 0.26230154484422685 0.0
1.2573086955 0.2619248611983285 0.0
1.2739092565 0.2615767244482524 0.0
1.2905098175 0.26125635531916036 0.0
1.3071103785 0.2609628351772912 0.0
1.3237109395000002 0.26069512951119633 0.0
1.34866136025 0.26034829647766033 0.0
1.3819616407500002 0.25995209158299937 0.0
1.41526192125 0.25963370088587856 0.0
1.4485622017500002 0.2593796093591887 0.0
1.48186248225 0.2591775922979064 0.0
1.5151627627500002 0.25901724682709926 0.0
1.54846304325 0.25889001066245476 0.0
1.5817633237500002 0.25878897331450096 0.0
1.61506360425 0.25870862371614 0.0
1.6483638847500004 0.25864459896404934 0.0
1.68166416525 0.258593460245663 0.0
1.7149644457500002 0.2585525036746072 0.0
1.74826472625 0.2585196054858737 0.0
1.7815650067500002 0.2584930977213888 0.0
1.8148652872500002 0.25847166958352646 0.0
1.84816556775 0.25845428975185036 0.0
1.88146584825 0.2584401455046775 0.0
1.9147661287500002 0.25842859515282857 0.0
1.94806640925 0.25841913093784813 0.0
1.9813666897500004 0.25841135011506255 0.0
2.01466697025 0.25840493241799445 0.0
2.04796725075 0.25839962248833265 0.0
2.08126753125 0.25839521616571226 0.0
2.11456781175 0.258391549776702 0.0
2.14786809225 0.25838849175474965 0.0
2.18116837275 0.25838593607298715 0.0
2.21446865325 0.2583837970885622 0.0
2.24776893375 0.25838200548771384 0.0
2.28106921425 0.2583805050908945 0.0
2.31436949475 0.2583792503314204 0.0
2.34766977525 0.25837820426299724 0.0
2.38097005575 0.2583773369838464 0.0
[...]
POINT_DATA 990

VECTORS normal float
-0.0 1.0 0.0
-0.0 1.0 0.0
-0.0 1.0 0.0
-6.41151320368442e-7 0.9999999999997945 0.0
-3.7396714125131186e-6 0.9999999999930075 0.0
1.042774517844222e-5 0.9999999999456312 0.0
-7.74655212952904e-6 0.9999999999699954 0.0
-4.978620461218355e-5 0.999999998760667 0.0
0.00019416677318835423 0.9999999811496318 0.0
-0.00016839431948410802 0.9999999858216765 0.0
-0.0003643938205940737 0.9999999336085695 0.0
-8.058564118986179e-5 0.9999999967529771 0.0
0.004482357598742658 0.9999899541847193 0.0
-0.0061963402734016805 0.9999808024993362 0.0
-0.022207717453306595 0.9997533782316087 0.0
0.07544538853826484 0.9971499352395858 0.0
0.25773859115994213 0.9662146855781526 0.0
0.2762814786320582 0.9610767630969357 0.0
0.25380957355883804 0.9672542066953654 0.0
0.2523378431003088 0.9676391956403398 0.0
0.25645762907464015 0.9665554740879669 0.0
0.25601196781109126 0.9666736121036368 0.0
0.25560284910839637 0.9667818696726114 0.0
0.25556422558573677 0.9667920803361822 0.0
0.25575325811818655 0.9667420912331955 0.0
0.25566339241479513 0.9667658608882288 0.0
0.25567569937028756 0.9667626062025332 0.0
0.2556817193583809 0.9667610141011802 0.0
0.255680202465599 0.9667614152763597 0.0
0.2556794072990819 0.9667616255743656 0.0
0.25567994704986924 0.966761482826336 0.0
0.2556812131466111 0.9667611479801396 0.0
0.2556808178887875 0.9667612525146634 0.0
0.2556804721820225 0.9667613439441908 0.0
0.2556799566970872 0.9667614802749308 0.0
0.25567920795560783 0.966761678294704 0.0
0.25568060331806547 0.9667613092624829 0.0
0.2556809599011657 0.9667612149564228 0.0
0.2556807908125885 0.9667612596755464 0.0
0.2556803875988409 0.9667613663139971 0.0
0.25568037597331406 0.9667613693886121 0.0
0.2556803750397753 0.9667613696355061 0.0
0.2556798418838965 0.9667615106396333 0.0
0.25568033531670387 0.966761380141107 0.0
0.25568060035679396 0.9667613100456542 0.0
0.2556807187319195 0.9667612787388256 0.0
0.25567990805191776 0.9667614931401453 0.0
0.25567921856703213 0.9667616754883035 0.0
0.255679110771535 0.9667617039969454 0.0
0.25568048455702513 0.9667613406713597 0.0
-0.0 1.0 0.0
-0.0 1.0 0.0
-0.0 1.0 0.0
-0.0 1.0 0.0
-0.0 1.0 0.0
-0.0 1.0 0.0
-0.0 1.0 0.0
-0.0 1.0 0.0
-0.0 1.0 0.0
-0.0 1.0 0.0
-0.0 1.0 0.0
-0.0 1.0 0.0
-0.0 1.0 0.0
-0.0 1.0 0.0
-0.0 1.0 0.0
-0.0 1.0 0.0
-0.0 1.0 0.0
-0.0 1.0 0.0
-0.0 1.0 0.0
-0.0 1.0 0.0
-0.0 1.0 0.0
-0.0 1.0 0.0
-0.0 1.0 0.0
-0.0 1.0 0.0
-0.0 1.0 0.0
-0.0 1.0 0.0
-0.0 1.0 0.0
-0.0 1.0 0.0
-0.0 1.0 0.0
-0.0 1.0 0.0
-0.0 1.0 0.0
-0.0 1.0 0.0
-0.0 1.0 0.0
-0.0 1.0 0.0
-0.0 1.0 0.0
-0.0 1.0 0.0
-0.0 1.0 0.0
-0.0 1.0 0.0
-0.0 1.0 0.0
-0.0 1.0 0.0
-0.007443005401377926 0.9999723004516651 0.0
-0.007329931743803328 0.9999731356894699 0.0
-0.00705851837919308 0.9999750883488502 0.0
-0.006610664436661496 0.9999781493191268 0.0
-0.0059583859397517565 0.9999822486609415 0.0
-0.005061324467410354 0.9999871914152878 0.0
-0.0038643021577012015 0.999992533556543 0.0
-0.002288941995668596 0.999997380368839 0.0
-0.0002262887092390933 0.9999999743967097 0.0
0.0024557205914852954 0.9999969847136423 0.0
0.005982801511820744 0.9999821028828817 0.0
0.010654443730726913 0.9999432398035344 0.0
0.016870984085231997 0.9998576748197694 0.0
0.02490220345067029 0.9996898920481797 0.0
0.03613852474496699 0.9993467901730896 0.0
0.05344610806914325 0.998570735367436 0.0
0.07443845932198845 0.997225609264909 0.0
0.08992967785871554 0.9959481176448036 0.0
0.09937151959959731 0.9950504012825013 0.0
0.10535860294994305 0.9944342938497426 0.0
0.1092355545959661 0.9940158920319693 0.0
0.11144516529902493 0.9937705847586117 0.0
0.11238653335471806 0.9936645646899707 0.0
0.11238555603230975 0.9936646752276688 0.0
0.11166420909053439 0.99374599592058 0.0
0.11036767482156595 0.993890827180974 0.0
0.10860825146386865 0.9940846280442932 0.0
0.10646927375852086 0.9943159929043347 0.0
0.10401271445925743 0.9945759675514069 0.0
0.10128651189767264 0.994857297559606 0.0
0.09833441333541441 0.9951534269417855 0.0
0.09518821563571779 0.9954592927910654 0.0
0.09186709837798847 0.9957712770689908 0.0
0.08839246549100631 0.9960857252487967 0.0
0.08478329544804634 0.996399414297785 0.0
0.08105699870593108 0.9967094676789153 0.0
0.07723011760400914 0.9970132942618524 0.0
0.07331881650773141 0.9973085536311748 0.0
0.0693393719795109 0.9975931292332996 0.0
0.06530858217618535 0.9978651156815415 0.0
0.06124412158982765 0.9981228168771066 0.0
0.05716487758980446 0.9983647513660238 0.0
0.05309130173562097 0.9985896623138142 0.0
0.04904579858924705 0.9987965306511348 0.0
0.04505312783662877 0.9989845923096792 0.0
0.0411408840527802 0.9991533554261607 0.0
0.037340054749119445 0.9993026169841309 0.0
0.03368568542528212 0.999432476257115 0.0
0.030217667728633393 0.9995433420102611 0.0
0.026981690872189865 0.9996359279045933 0.0
0.02164226509505955 0.9997657787509809 0.0
0.016098425462482087 0.9998704119522834 0.0
0.01206664407017812 0.999927195400187 0.0
0.009106515305455361 0.9999585348298156 0.0
0.006915036348060446 0.9999760908503289 0.0
0.005280656988086437 0.9999860572336867 0.0
0.00405375240676412 0.9999917835119569 0.0
0.0031272840949371477 0.9999951100351389 0.0
0.0024239084886400713 0.9999970623295046 0.0
0.001887244264039872 0.9999982191529583 0.0
0.001475869943972582 0.9999989109033612 0.0
0.0011591437672487002 0.9999993281926378 0.0
0.0009142582535527848 0.9999995820658355 0.0
0.0007241429174560952 0.9999997378084832 0.0
0.000575956888164297 0.9999998341368178 0.0
0.0004599964464850991 0.9999998942016293 0.0
0.00036889735911759496 0.999999931957367 0.0
0.0002970485764175454 0.9999999558810706 0.0
0.00024015871628799197 0.9999999711618951 0.0
0.0001949338043329929 0.9999999810004058 0.0
0.0001588365632385029 0.9999999873854731 0.0
0.00012990582860712726 0.9999999915622378 0.0
0.00010662052901358399 0.9999999943160314 0.0
8.779685096158715e-5 0.9999999961458566 0.0
7.251021932402449e-5 0.9999999973711341 0.0
6.003590599104256e-5 0.999999998197845 0.0
4.98036715047902e-5 0.9999999987597971 0.0
4.136301287696534e-5 0.9999999991445506 0.0
3.435645214827161e-5 0.999999999409817 0.0
2.8498937971481105e-5 0.9999999995939054 0.0
2.356190636884443e-5 0.9999999997224183 0.0
1.9360900041075395e-5 0.9999999998125777 0.0
1.574590981981274e-5 0.9999999998760332 0.0
1.259380003425466e-5 0.9999999999206981 0.0
9.802328663765344e-6 0.9999999999519572 0.0
7.285385446486797e-6 0.9999999999734616 0.0
4.969155721913889e-6 0.9999999999876537 0.0
2.7889813509411877e-6 0.9999999999961109 0.0
6.867373084771065e-7 0.999999999999764 0.0
-2.367211686737279e-6 0.9999999999971982 0.0
-0.015264385014296656 0.9998834924880675 0.0
-0.01516868879619681 0.9998849488217152 0.0
-0.014884276575350587 0.9998892230196446 0.0
-0.014396863837531429 0.9998963597851747 0.0
-0.013685697711001388 0.999906346453588 0.0
-0.0127231782037794 0.9999190570923204 0.0
-0.011474470397874843 0.9999341660974926 0.0
-0.009897158474159616 0.9999510219276427 0.0
-0.007941347625577537 0.9999684670017798 0.0
-0.005550538147676848 0.9999845956444887 0.0
-0.002662753472382268 0.9999964548656887 0.0
0.0007837455947601384 0.9999996928713741 0.0
0.004841242658201526 0.9999882811160962 0.0
0.009537279739442258 0.9999545191133302 0.0
0.014868021568129688 0.999889464858316 0.0
0.020726735435700968 0.9997851781448746 0.0
0.02672376672084627 0.9996428563703387 0.0
0.032260304517383015 0.9994795009165748 0.0
0.03699780286420726 0.9993153469166883 0.0
0.0408681845900078 0.9991645467530949 0.0
0.04391647575034086 0.999035206165263 0.0
0.04622035477639004 0.9989312683084581 0.0
0.04787009698495254 0.9988535697561736 0.0
0.048956621330232646 0.9988009057003944 0.0
0.0495636379672076 0.9987709676354511 0.0
0.049764521074256884 0.9987609786341525 0.0
0.049622287378801144 0.9987680554539656 0.0
0.049190301835392525 0.9987894243559766 0.0
0.04851337880027082 0.9988225328242157 0.0
0.04762904984417454 0.9988650927982925 0.0
0.04657097516411366 0.9989149835057353 0.0
0.045366594717060615 0.9989704060099969 0.0
0.04403611302050611 0.9990299398666915 0.0
0.042598586519357856 0.9990922682247886 0.0
0.04107058635414904 0.9991562475091302 0.0
0.03946675882526824 0.9992208839630146 0.0
0.03780028889499482 0.9992853136914677 0.0
0.036083279689762764 0.9993487864238544 0.0
0.03432706193939446 0.9994106527442106 0.0
0.03254244196956368 0.9994703544731367 0.0
0.03073989470584538 0.9995274177697545 0.0
0.028929706149795897 0.9995814484583465 0.0
0.027122066926394555 0.9996321290783127 0.0
0.02532711463980206 0.9996792171812028 0.0
0.023554917866510892 0.9997225444313548 0.0
0.02181539002906932 0.999762016060762 0.0
0.02011811379142349 0.999797610267936 0.0
0.018472047240454145 0.9998293771792999 0.0
0.0168850703662874 0.9998574370372635 0.0
0.015363313399250735 0.9998819773360236 0.0
0.013169808111664693 0.9999132743164789 0.0
0.010624339284901186 0.9999435601146495 0.0
0.008497157589130194 0.9999638985047937 0.0
0.006763004777498874 0.9999771306216855 0.0
0.0053698177642965824 0.9999855824246558 0.0
0.004260343637698318 0.999990924694864 0.0
0.0033813456882441947 0.9999942832343277 0.0
0.00268688335337578 0.999996390322408 0.0
0.002138863109355149 0.9999977126296837 0.0
0.0017064275791107812 0.9999985440513988 0.0
0.0013649372911778113 0.9999990684726617 0.0
0.0010948941783133516 0.9999994006031894 0.0
0.0008809553713353636 0.9999996119587415 0.0
0.0007110886235968219 0.9999997471764529 0.0
0.0005758755074738358 0.9999998341836862 0.0
0.000467949287520853 0.9999998905117263 0.0
0.0003815478125067128 0.9999999272106308 0.0
0.0003121611268656693 0.9999999512777143 0.0
0.0002562553816462856 0.9999999671665892 0.0
0.00021105735268433544 0.9999999777273969 0.0
0.00017438666456109794 0.9999999847946456 0.0
0.0001445253393511429 0.9999999895562132 0.0
0.00012011643030770147 0.9999999927860217 0.0
0.00010008525763183031 0.9999999949914706 0.0
8.357817662363348e-5 0.9999999965073443 0.0
6.991493012599582e-5 0.9999999975559513 0.0
5.855152050506574e-5 0.9999999982858597 0.0
4.905122751059657e-5 0.9999999987969884 0.0
4.106193641475753e-5 0.9999999991569588 0.0
3.429835811587202e-5 0.9999999994118113 0.0
2.852804496090569e-5 0.9999999995930755 0.0
2.356035414593701e-5 0.9999999997224549 0.0
1.923770105014415e-5 0.9999999998149554 0.0
1.542859112178995e-5 0.9999999998809794 0.0
1.2022031057826601e-5 0.9999999999277355 0.0
8.923006190271891e-6 0.99999999996019 0.0
6.04877685181873e-6 0.9999999999817064 0.0
3.3257968778160353e-6 0.9999999999944695 0.0
6.870955524250922e-7 0.999999999999764 0.0
-3.2552466896579947e-6 0.9999999999947016 0.0
-0.024331390746242614 0.9997039478887506 0.0
-0.024345884213413622 0.9997035950329811 0.0
-0.024214205405312918 0.9997067931431641 0.0
-0.023929345284815665 0.9997136522195942 0.0
-0.023481409941701777 0.9997242736810734 0.0
-0.02285802412719953 0.9997387212332031 0.0
-0.022044958644359416 0.999756980369914 0.0
-0.021027044339620566 0.9997789072621704 0.0
-0.019789455239878552 0.9998041695558729 0.0
-0.01831944737340749 0.9998321848430027 0.0
-0.01660863892240428 0.9998620670438224 0.0
-0.014655956263651019 0.9998925957051579 0.0
-0.012471156300055925 0.9999222321063471 0.0
-0.0100787099925965 0.9999492085125549 0.0
-0.007521558739616569 0.9999717126769768 0.0
-0.004864796339917451 0.9999881668082733 0.0
-0.002195415666543208 0.9999975900721216 0.0
0.0003920741088632102 0.9999999231389435 0.0
0.002820254648712635 0.9999960230739501 0.0
0.005038754756774147 0.9999873053946738 0.0
0.007021493358352871 0.9999753490116735 0.0
0.008760535595334356 0.9999616257717507 0.0
0.010260481547574469 0.9999473598737144 0.0
0.011533824430150918 0.9999334832347673 0.0
0.012597364563367562 0.999920650054822 0.0
0.013469656261669186 0.9999092800650428 0.0
0.014169328277811468 0.9998996100290045 0.0
0.01471405659326897 0.9998917424094319 0.0
0.015120009266623843 0.9998856861260575 0.0
0.01540162031637853 0.999881388011413 0.0
0.015571255756649135 0.9998787606475902 0.0
0.015640740763221073 0.9998776761326243 0.0
0.015619973337073543 0.9998780007745689 0.0
0.015517339999436944 0.9998795988314504 0.0
0.015340299653691904 0.9998823306802331 0.0
0.015095605959199938 0.9998860548486134 0.0
0.014789505570003678 0.9998906292815204 0.0
0.01442790636692949 0.9998959123418133 0.0
0.01401651339935235 0.9999017638508924 0.0
0.013560932532757917 0.999908046326682 0.0
0.013066743199952869 0.9999146264667532 0.0
0.012539542430248903 0.9999213768470199 0.0
0.011984962688127826 0.9999281777554646 0.0
0.01140866620433999 0.9999349190499539 0.0
0.010816318665399194 0.9999415019142512 0.0
0.010213545617408048 0.9999478403826476 0.0
0.009605876016002822 0.9999538625086486 0.0
0.008998679461172845 0.9999595110643005 0.0
0.008397107398540493 0.9999647436721644 0.0
0.007806054839215326 0.9999695322897829 0.0
0.006937900449056921 0.9999759324790568 0.0
0.0058713114479131065 0.9999827637023959 0.0
0.004918359689752322 0.999987904795834 0.0
0.004088786358366 0.9999916408781205 0.0
0.0033806451125177805 0.9999942856029845 0.0
0.002784859582804965 0.9999961222710335 0.0
0.0022888660693363965 0.9999973805426274 0.0
0.0018790553435006204 0.9999982345739497 0.0
0.0015422251317966955 0.9999988107701142 0.0
0.001266339085759775 0.9999991981923386 0.0
0.0010408430790657761 0.9999994583226959 0.0
0.0008567198942651907 0.9999996330154439 0.0
0.0007064023241006728 0.9999997504978472 0.0
0.0005836196169125723 0.999999829694057 0.0
0.00048322154343848214 0.9999998832484633 0.0
0.00040100460790763634 0.9999999195976489 0.0
0.0003335527246535486 0.9999999443712885 0.0
0.00027809745612402726 0.9999999613309017 0.0
0.00023239884236221176 0.9999999729953886 0.0
0.00019464572694655917 0.9999999810565202 0.0
0.00016337350957625326 0.999999986654548 0.0
0.0001373969336419059 0.9999999905610414 0.0
0.00011575554469997167 0.9999999933003269 0.0
9.766965348434543e-5 0.9999999952303195 0.0
8.250490362321309e-5 0.9999999965964705 0.0
6.974382457777012e-5 0.9999999975678993 0.0
5.896301637983961e-5 0.9999999982616815 0.0
4.9814851880702184e-5 0.9999999987592405 0.0
4.201278946775264e-5 0.9999999991174625 0.0
3.5319564301372156e-5 0.9999999993762644 0.0
2.9537671109946568e-5 0.999999999563763 0.0
2.4501669516612115e-5 0.9999999996998342 0.0
2.007193759265367e-5 0.9999999997985587 0.0
1.61295744484749e-5 0.9999999998699186 0.0
1.257221213109719e-5 0.9999999999209698 0.0
9.310543404353745e-6 0.9999999999566568 0.0
6.265408609969582e-6 0.9999999999803724 0.0
3.36531299479313e-6 0.9999999999943373 0.0
5.442680086943594e-7 0.9999999999998519 0.0
-3.8066855984606626e-6 0.9999999999927546 0.0
-0.03434119668589035 0.9994101671536971 0.0
-0.03450658255134241 0.9994044705526522 0.0
-0.03459573980726661 0.9994013882255658 0.0
-0.03460540126177398 0.9994010537334407 0.0
-0.03453010729288973 0.9994036580333002 0.0
-0.034362613718500905 0.9994094310033466 0.0
-0.034094476307687104 0.9994186143380084 0.0
-0.03371680012400424 0.9994314270571033 0.0
-0.03322113280319292 0.999448025829894 0.0
-0.032600467555981005 0.9994684634920361 0.0
-0.03185030316973009 0.9994926503921858 0.0
-0.030969683119646083 0.9995203243193552 0.0
-0.029962100162322595 0.9995510354923669 0.0
-0.028836116997969785 0.9995841527137569 0.0
-0.027605520463631048 0.9996188949994552 0.0
-0.026288804986302712 0.9996543896429367 0.0
-0.024907743338547957 0.9996897540346109 0.0
-0.02348500303636369 0.9997241892804144 0.0
-0.02204152584146916 0.9997570560584106 0.0
-0.02059482156900822 0.9997879041699499 0.0
-0.019158415319075715 0.9998164607178968 0.0
-0.017742102157840663 0.9998425965175822 0.0
-0.01635262531165007 0.9998662868831093 0.0
-0.014994510762785365 0.999887576003915 0.0
-0.013670883714236082 0.9999065491027008 0.0
-0.01238416380744766 0.9999233133029705 0.0
-0.01113659042562043 0.9999379862539935 0.0
-0.009930566885694384 0.9999506907049609 0.0
-0.008768835094664197 0.9999615530264563 0.0
-0.007654505781425503 0.9999707038414887 0.0
-0.006593114053150735 0.9999782651873399 0.0
-0.005587694908252832 0.9999843887109499 0.0
-0.004639586459619725 0.9999892370608215 0.0
-0.0037519402127394164 0.9999929614475493 0.0
-0.0029274541149793836 0.9999957149970218 0.0
-0.002168220481960093 0.999997649407208 0.0
-0.0014756160288602288 0.9999989112780752 0.0
-0.0008502363869838772 0.9999996385489778 0.0
-0.0002918728017507518 0.9999999574051329 0.0
0.00020047421206806644 0.999999979905045 0.0
0.0006285509338737579 0.9999998024618423 0.0
0.000994783264980796 0.9999995052030053 0.0
0.0013021930279494439 0.9999991521462995 0.0
0.0015543037128391347 0.9999987920692547 0.0
0.0017550407569240933 0.9999984599147848 0.0
0.0019086305549996835 0.9999981785630433 0.0
0.002019501587237193 0.9999979608045905 0.0
0.0020921903273961495 0.9999978113674219 0.0
0.0021312538794078734 0.9999977288758717 0.0
0.002141190401023827 0.9999977076492058 0.0
0.002118541728981357 0.9999977558879534 0.0
0.002014471194125922 0.9999979709508455 0.0
0.001864711389592561 0.9999982614242056 0.0
0.0016916058715763234 0.9999985692337643 0.0
0.0015112908386680933 0.9999988579993484 0.0
0.0013345876429112626 0.9999991094375152 0.0
0.0011681654627514312 0.9999993176944931 0.0
0.0010156611755166545 0.9999994842160552 0.0
0.0008786192137163343 0.9999996140140643 0.0
0.0007572181418318201 0.9999997133103017 0.0
0.0006508010587666733 0.9999997882289684 0.0
0.0005582455191064153 0.9999998441809581 0.0
0.0004782110364011435 0.9999998856570957 0.0
0.00040929761813535544 0.9999999162377263 0.0
0.000350142041982082 0.9999999387002735 0.0
0.00029947198205695067 0.999999955158265 0.0
0.0002561325102837693 0.9999999671980682 0.0
0.0002190951309437772 0.9999999759986613 0.0
0.00018745626002988715 0.9999999824300753 0.0
0.00016042973436507834 0.9999999871311501 0.0
0.0001373363148168639 0.9999999905693682 0.0
0.00011759204504382381 0.9999999930860557 0.0
0.00010069659022693352 0.9999999949300985 0.0
8.622219630236746e-5 0.9999999962828665 0.0
7.380359767602434e-5 0.9999999972765145 0.0
6.312900431505333e-5 0.9999999980073643 0.0
5.3932179210648035e-5 0.9999999985456601 0.0
4.598554833899238e-5 0.9999999989426647 0.0
3.909425035001895e-5 0.9999999992358198 0.0
3.3091019245624095e-5 0.9999999994524923 0.0
2.783179242528092e-5 0.9999999996126957 0.0
2.3191942409683872e-5 0.9999999997310668 0.0
1.9063039666403622e-5 0.9999999998183003 0.0
1.5350063961736017e-5 0.9999999998821878 0.0
1.1968990931349332e-5 0.9999999999283717 0.0
8.844689205649908e-6 0.9999999999608858 0.0
5.909070523807678e-6 0.9999999999825413 0.0
3.0994416015917677e-6 0.9999999999951968 0.0
3.5701174250091836e-7 0.9999999999999363 0.0
-4.003317284052188e-6 0.9999999999919866 0.0
-0.04461338842207145 0.9990043271044934 0.0
-0.04494115979982086 0.9989896356598735 0.0
-0.04528141363390631 0.998974270729389 0.0
-0.04563133077744904 0.9989583483066143 0.0
-0.04598412489957347 0.9989421706271191 0.0
-0.04632946572929701 0.998926213794211 0.0
-0.04665410513755871 0.9989111043900822 0.0
-0.046942659920621556 0.9988975856811231 0.0
-0.04717849826271935 0.9988864746815199 0.0
-0.047344669442799685 0.9988786123825817 0.0
-0.04742480957432952 0.998874810692931 0.0
-0.04740395350004173 0.9988758006842321 0.0
-0.0472691885012029 0.9988821871564424 0.0
-0.047010100425178114 0.9988944140688817 0.0
-0.046618985311640375 0.9989127440414969 0.0
-0.04609082830549369 0.9989372530575248 0.0
-0.04542308568195684 0.998967838965364 0.0
-0.04461534742555389 0.9990042396176791 0.0
-0.04366899497472712 0.999046054432876 0.0
-0.04258696094830501 0.9990927638398686 0.0
-0.04137363438369033 0.9991437446022893 0.0
-0.04003489657731615 0.999198282152268 0.0
-0.038578242099461944 0.9992555825395799 0.0
-0.03701292975537376 0.9993147867568677 0.0
-0.035350108960584166 0.9993749895792241 0.0
-0.03360287306730825 0.9994352639974349 0.0
-0.03178620045079885 0.9994946910618893 0.0
-0.02991675610900572 0.9995523936762466 0.0
-0.028012541633421123 0.9996075717556543 0.0
-0.02609240008643802 0.9996595353707827 0.0
-0.024179267244599897 0.9997076387802157 0.0
-0.02229143862113964 0.9997515150097048 0.0
-0.020442485597893925 0.9997910305571759 0.0