# vtk DataFile Version 4.0
 
ASCII
DATASET UNSTRUCTURED_GRID
POINTS 10 float
0.5 0.19002499620000002 0.0
0.5 0.2500749966 0.0
0.5 0.31012499699999996 0.0
0.5 0.3701749974 0.0
0.5 0.43022499780000006 0.0
0.5 0.4902749982 0.0
0.5 0.5503249986 0.0
0.5 0.610374999 0.0
0.5 0.6704249994 0.0
0.5 0.7304749998 0.0

CELLS 10 20
1 0
1 1
1 2
1 3
1 4
1 5
1 6
1 7
1 8
1 9

CELL_TYPES 10
1
1
1
1
1
1
1
1
1
1

POINT_DATA 10

VECTORS normal float
-1.0 0.0 0.0
-1.0 0.0 0.0
-1.0 0.0 0.0
-1.0 0.0 0.0
-1.0 0.0 0.0
-1.0 0.0 0.0
-1.0 0.0 0.0
-1.0 0.0 0.0
-1.0 0.0 0.0
-1.0 0.0 0.0

VECTORS tangent float
0.0 1.0 0.0
0.0 1.0 0.0
0.0 1.0 0.0
0.0 1.0 0.0
0.0 1.0 0.0
0.0 1.0 0.0
0.0 1.0 0.0
0.0 1.0 0.0
0.0 1.0 0.0
0.0 1.0 0.0