# vtk DataFile Version 4.0
 
ASCII
DATASET UNSTRUCTURED_GRID
POINTS 60 float
0.9996847945572052 0.8348057768815852 0.0
0.9927440546319256 0.8342232859560018 0.0
0.9811933449845226 0.832992466752426 0.0
0.9650603963288826 0.8309472017961993 0.0
0.944383916431952 0.8278435846187336 0.0
0.9192066566279528 0.8234682584798633 0.0
0.8895619866901217 0.817694182442478 0.0
0.855456740748841 0.8105309523105046 0.0
0.8168561006765969 0.8021651912607195 0.0
0.7736777428084598 0.7929882151108585 0.0
0.7258022560624324 0.7836055134363076 0.0
0.6754078431329607 0.7751152678009205 0.0
0.6247477496943177 0.7684169866939468 0.0
0.5738644692604933 0.7637177202950376 0.0
0.5228352060582159 0.7609987664532598 0.0
0.47173906774878777 0.7600135464767619 0.0
0.4206316430654622 0.760401773444404 0.0
0.36954296192555036 0.7618870208260927 0.0
0.31849330950096477 0.7643752498337679 0.0
0.2675103224246085 0.7679603680510866 0.0
0.2189498888502644 0.7726194508005036 0.0
0.17517038053483724 0.7782095423716728 0.0
0.13620649663142864 0.7846175774170823 0.0
0.10205265711330264 0.7915149887484272 0.0
0.07262165030570028 0.7982934673718074 0.0
0.04780399676699851 0.8043917291523828 0.0
0.027903844175829595 0.8105996064335654 0.0
0.013776636151823434 0.818225110521201 0.0
0.005380471465741657 0.8260943716153729 0.0
0.0012387329453317421 0.8330349176697341 0.0
0.0012387329453317306 0.8383192555542252 0.0
0.005380471465741615 0.8439056283846272 0.0
0.013776636151823354 0.8517748894787991 0.0
0.027903844175829504 0.8594003935664346 0.0
0.04780399676699843 0.865608270847617 0.0
0.07262165030570022 0.8717065326281924 0.0
0.10205265711330261 0.8784850112515727 0.0
0.13620649663142864 0.8853824225829179 0.0
0.17517038053483724 0.8917904576283272 0.0
0.2189498888502644 0.8973805491994964 0.0
0.2675103224246085 0.9020396319489135 0.0
0.31849330950096477 0.9056247501662323 0.0
0.36954296192555036 0.9081129791739073 0.0
0.4206316430654622 0.909598226555596 0.0
0.47173906774878777 0.9099864535232381 0.0
0.522835206058216 0.9090012335467403 0.0
0.5738644692604933 0.9062822797049623 0.0
0.6247477496943177 0.9015830133060532 0.0
0.6754078431329608 0.8948847321990796 0.0
0.7258022560624325 0.8863944865636924 0.0
0.7736777428084598 0.8770117848891416 0.0
0.8168561006765971 0.8678348087392804 0.0
0.8554567407488413 0.8594690476894953 0.0
0.8895619866901217 0.852305817557522 0.0
0.9192066566279528 0.8465317415201369 0.0
0.9443839164319521 0.8421564153812665 0.0
0.9650603963288827 0.8390527982038007 0.0
0.9811933449845228 0.8370075332475739 0.0
0.992744054631926 0.8357767140439983 0.0
0.9996847945572054 0.8351400761208051 0.0

CELLS 60 120
1 0
1 1
1 2
1 3
1 4
1 5
1 6
1 7
1 8
1 9
1 10
1 11
1 12
1 13
1 14
1 15
1 16
1 17
1 18
1 19
1 20
1 21
1 22
1 23
1 24
1 25
1 26
1 27
1 28
1 29
1 30
1 31
1 32
1 33
1 34
1 35
1 36
1 37
1 38
1 39
1 40
1 41
1 42
1 43
1 44
1 45
1 46
1 47
1 48
1 49
1 50
1 51
1 52
1 53
1 54
1 55
1 56
1 57
1 58
1 59

CELL_TYPES 60
1
1
1
1
1
1
1
1
1
1
1
1
1
1
1
1
1
1
1
1
1
1
1
1
1
1
1
1
1
1
1
1
1
1
1
1
1
1
1
1
1
1
1
1
1
1
1
1
1
1
1
1
1
1
1
1
1
1
1
1

POINT_DATA 60

VECTORS normal float
0.060392240134609795 -0.9981747228474199 0.0
0.09521168576963074 -0.9954570482411107 0.0
0.11311544956060647 -0.99358185121846 0.0
0.13524579237508402 -0.9908120788751195 0.0
0.15897781253203314 -0.9872821557804687 0.0
0.18139205900745897 -0.9834108606930447 0.0
0.1995608263001288 -0.9798854405523179 0.0
0.21078089812299972 -0.9775333308826158 0.0
0.2127221090830268 -0.9771127387908054 0.0
0.20354222575346392 -0.9790661685173916 0.0
0.1821010333493831 -0.983279824695436 0.0
0.1501242138586 -0.9886671433871652 0.0
0.11198556362224059 -0.9937098336738995 0.0
0.0719021881960338 -0.997411687986772 0.0
0.03449298719717484 -0.9994049398688281 0.0
0.004059082571830104 -0.9999917618904043 0.0
-0.019250071081426023 -0.9998147002136748 0.0
-0.03886643799209422 -0.9992444145442129 0.0
-0.05849600315461168 -0.998287642723747 0.0
-0.08178790877976572 -0.9966497569243835 0.0
-0.11057399926819274 -0.9938678939808036 0.0
-0.14449259224934913 -0.9895058821376774 0.0
-0.18223001615496326 -0.9832559286432816 0.0
-0.21586343510818828 -0.9764235645370779 0.0
-0.23442728706393387 -0.9721336570039347 0.0
-0.24365502588908586 -0.9698619635592423 0.0
-0.3643051171693729 -0.9312796473692581 0.0
-0.6117411120282212 -0.7910580331773867 0.0
-0.7802406219837903 -0.6254794735291862 0.0
-0.9368836623771173 -0.34964124924104656 0.0
-0.845949548884649 0.5332629377163379 0.0
-0.7802406219837972 0.6254794735291779 0.0
-0.6117411120282223 0.7910580331773859 0.0
-0.3643051171693727 0.9312796473692581 0.0
-0.24365502588908122 0.9698619635592436 0.0
-0.23442728706393365 0.9721336570039347 0.0
-0.21586343510819142 0.9764235645370771 0.0
-0.18223001615496318 0.9832559286432816 0.0
-0.14449259224934666 0.989505882137678 0.0
-0.11057399926819268 0.9938678939808036 0.0
-0.08178790877976787 0.9966497569243834 0.0
-0.05849600315461163 0.998287642723747 0.0
-0.0388664379920921 0.999244414544213 0.0
-0.01925007108142819 0.9998147002136744 0.0
0.004059082571830104 0.9999917618904043 0.0
0.034492987197174765 0.9994049398688281 0.0
0.07190218819603612 0.997411687986772 0.0
0.1119855636222382 0.9937098336738996 0.0
0.1501242138586 0.9886671433871652 0.0
0.18210103334938346 0.9832798246954355 0.0
0.20354222575346345 0.979066168517392 0.0
0.2127221090830293 0.977112738790805 0.0
0.21078089812299686 0.9775333308826164 0.0
0.19956082630012947 0.9798854405523176 0.0
0.18139205900746208 0.983410860693044 0.0
0.15897781253202922 0.9872821557804694 0.0
0.1352457923750883 0.9908120788751188 0.0
0.11311544956060826 0.9935818512184599 0.0
0.09521168576962846 0.9954570482411107 0.0
0.08359658784564383 0.9964996791271765 0.0

VECTORS U float
16.436944878349557 0.9913104827116398 0.0
36.60476920122383 3.4635625624055684 0.0
30.416185559788964 3.389230773045112 0.0
27.891705378403195 3.7418507115043123 0.0
27.109918751889285 4.301427433698264 0.0
27.267275921412043 4.966916805486893 0.0
27.974301294971784 5.638761861091702 0.0
29.044985827634587 6.212450210519746 0.0
30.386403564764986 6.577156280728415 0.0
31.899356766382986 6.6097264769618205 0.0
33.55674169711432 6.187128959228122 0.0
35.24994399996051 5.317738525377166 0.0
36.619369784684466 4.099518804951828 0.0
37.4389271752719 2.684297854715502 0.0
37.72416760978436 1.3345104533299659 0.0
37.61489910332622 -0.029961364120542826 0.0
37.32183237244512 -1.020463937909303 0.0
36.97562879028338 -1.585139409178172 0.0
36.57562014002575 -2.263508862831946 0.0
36.15826351419368 -3.0965551007023766 0.0
35.796319838205406 -4.128821678524923 0.0
35.278026284154706 -5.305620668844527 0.0
34.35451266027113 -6.546201053636624 0.0
33.107282719220535 -7.509635722950186 0.0
32.024877825999496 -7.846629658736473 0.0
32.05113364659723 -7.839931175788932 0.0
30.960712275588126 -12.400630525358135 0.0
22.73502574457177 -19.68138307543519 0.0
12.854794276467523 -17.245015960973824 0.0
1.3464736607411356 -3.636703025508521 0.0
3.232965620536356 5.138392936109589 0.0
12.336717735144319 17.296300570700843 0.0
22.092543895502388 19.11470639155789 0.0
29.946373062888682 11.991003928967597 0.0
30.818616892058415 7.543521817460805 0.0
30.591463118696385 7.501176335373452 0.0
31.38835022227196 7.127092574709718 0.0
32.31869563909005 6.1686453724878945 0.0
32.94645633867985 4.969313009292224 0.0
33.219172319562276 3.850166320935142 0.0
33.38237913170178 2.8822142388756267 0.0
33.595351662083715 2.1037532921664504 0.0
33.8379919245169 1.4759011368421897 0.0
34.082362945742794 0.9557006004800845 0.0
34.335305424059 0.05295983863361208 0.0
34.48989614318333 -1.1917034969003066 0.0
34.36621100614755 -2.436781375539974 0.0
33.83752691015575 -3.7623334922467944 0.0
32.87316440295695 -4.935737072684496 0.0
31.647051296966026 -5.814620358868712 0.0
30.41435761848596 -6.287468992606712 0.0
29.285245874397752 -6.329502981526749 0.0
28.26981263493094 -6.041417991071715 0.0
27.460645872554917 -5.5328655678048895 0.0
26.954790683522074 -4.909446630409711 0.0
26.948024327172586 -4.276179762402842 0.0
27.843074400156176 -3.736189367512843 0.0
30.46134389078291 -3.3952153769195164 0.0
36.78290339309528 -3.412835507132023 0.0
16.39803191511135 -1.3730792248026091 0.0