# vtk DataFile Version 4.0
 
ASCII
DATASET UNSTRUCTURED_GRID
POINTS 120 float
1.0008422026397177 0.834905208940804 0.0
0.9979788903241451 0.8347164385187393 0.0
0.9940210132971886 0.8343575838597069 0.0
0.9889706588526574 0.8338619508865609 0.0
0.9828306329568247 0.8332046186536722 0.0
0.9756044863595009 0.8323577592451528 0.0
0.9672964786155811 0.8312919927390097 0.0
0.9579114559887013 0.8299778774202325 0.0
0.947454627118413 0.828387481073382 0.0
0.9359312389122889 0.8264959769881257 0.0
0.9233461574857169 0.8242832087274485 0.0
0.9097033786882182 0.8217351757841056 0.0
0.8950055083370357 0.8188454041092543 0.0
0.8792532545762034 0.8156161773606833 0.0
0.8624449776857165 0.8120596149525227 0.0
0.8445763463707848 0.8081985891604717 0.0
0.8256401524874941 0.8040674719636507 0.0
0.8056263488650457 0.7997126928015388 0.0
0.7845223253720642 0.7951930529759681 0.0
0.762313464863871 0.7905797115272937 0.0
0.7383829414631714 0.7858439249038836 0.0
0.7132543019142765 0.7811901619428308 0.0
0.6880580819406731 0.7769191379220379 0.0
0.6627923085600962 0.7730826552477034 0.0
0.6374592861183979 0.7697202750665881 0.0
0.6120649660603316 0.766858476633949 0.0
0.5866180838684352 0.7645098412473704 0.0
0.5611291234926767 0.7626723732811004 0.0
0.5356091876688145 0.7613290379542974 0.0
0.5100688848422955 0.7604475520787897 0.0
0.4845173390800591 0.7599813512316405 0.0
0.4589615035971499 0.7598776171306504 0.0
0.43340616547419897 0.760089453723974 0.0
0.4078545762737828 0.7605814147926062 0.0
0.38230915564902357 0.7613299026252189 0.0
0.3567720637095279 0.7623231889382753 0.0
0.3312456936595293 0.7635613781278581 0.0
0.3057331331744394 0.7650563208224769 0.0
0.28023864502371465 0.7668314686396944 0.0
0.25476821843244823 0.7689216441623944 0.0
0.23048472107909812 0.7712437307047876 0.0
0.20794055327800606 0.7737429826094075 0.0
0.18653114144785876 0.7764640931010076 0.0
0.16626106514225936 0.7793960679857171 0.0
0.14713423516875568 0.7825210846150858 0.0
0.12915260098528347 0.7858100142060589 0.0
0.11231281546163285 0.7892102540109024 0.0
0.09660426007117912 0.7926438436669615 0.0
0.08201103737738723 0.7960223155218205 0.0
0.06851531082117106 0.7992607883222017 0.0
0.0561004027527435 0.8022868774218359 0.0
0.04476490097233138 0.8050931733600106 0.0
0.03456861952122462 0.8078911020176327 0.0
0.02565319147167203 0.8110539189739583 0.0
0.018184523605463365 0.8147823426156233 0.0
0.012247940891669112 0.8189394596487414 0.0
0.007755227078662667 0.823150469696007 0.0
0.0044744994277289875 0.8270118861482987 0.0
0.002154872435382462 0.8302353916100629 0.0
0.0006033249502377045 0.8340073412184966 0.0
0.0006033249502376989 0.8373468320054628 0.0
0.0021548724353824423 0.8397646083899369 0.0
0.00447449942772895 0.8429881138517012 0.0
0.007755227078662608 0.8468495303039931 0.0
0.012247940891669034 0.8510605403512586 0.0
0.018184523605463274 0.8552176573843765 0.0
0.025653191471671933 0.8589460810260416 0.0
0.03456861952122453 0.8621088979823673 0.0
0.044764900972331295 0.8649068266399894 0.0
0.05610040275274343 0.8677131225781641 0.0
0.06851531082117099 0.8707392116777983 0.0
0.08201103737738717 0.8739776844781795 0.0
0.09660426007117906 0.8773561563330383 0.0
0.1123128154616328 0.8807897459890974 0.0
0.12915260098528344 0.8841899857939409 0.0
0.14713423516875562 0.8874789153849142 0.0
0.16626106514225933 0.8906039320142828 0.0
0.18653114144785873 0.8935359068989923 0.0
0.207940553278006 0.8962570173905924 0.0
0.23048472107909812 0.8987562692952124 0.0
0.25476821843244823 0.9010783558376055 0.0
0.28023864502371465 0.9031685313603057 0.0
0.3057331331744394 0.9049436791775233 0.0
0.3312456936595293 0.9064386218721419 0.0
0.35677206370952796 0.9076768110617249 0.0
0.38230915564902357 0.9086700973747811 0.0
0.4078545762737828 0.9094185852073937 0.0
0.43340616547419897 0.9099105462760261 0.0
0.45896150359714993 0.9101223828693497 0.0
0.4845173390800592 0.9100186487683596 0.0
0.5100688848422955 0.9095524479212106 0.0
0.5356091876688145 0.9086709620457026 0.0
0.5611291234926769 0.9073276267188997 0.0
0.5866180838684353 0.9054901587526295 0.0
0.6120649660603317 0.9031415233660509 0.0
0.6374592861183979 0.9002797249334118 0.0
0.6627923085600962 0.8969173447522967 0.0
0.6880580819406732 0.8930808620779621 0.0
0.7132543019142765 0.8888098380571692 0.0
0.7383829414631715 0.8841560750961165 0.0
0.7623134648638712 0.8794202884727061 0.0
0.7845223253720643 0.8748069470240318 0.0
0.8056263488650459 0.8702873071984611 0.0
0.8256401524874942 0.8659325280363491 0.0
0.8445763463707849 0.8618014108395282 0.0
0.8624449776857165 0.8579403850474772 0.0
0.8792532545762034 0.8543838226393166 0.0
0.8950055083370358 0.8511545958907455 0.0
0.9097033786882184 0.8482648242158946 0.0
0.9233461574857169 0.8457167912725515 0.0
0.9359312389122889 0.8435040230118745 0.0
0.9474546271184132 0.8416125189266181 0.0
0.9579114559887013 0.8400221225797676 0.0
0.9672964786155811 0.8387080072609905 0.0
0.9756044863595009 0.8376422407548472 0.0
0.9828306329568247 0.8367953813463276 0.0
0.9889706588526574 0.8361380491134391 0.0
0.9940210132971891 0.8356424161402929 0.0
0.9979788903241453 0.8352835614812605 0.0
1.000842202639718 0.8350406440615863 0.0

CELLS 120 240
1 0
1 1
1 2
1 3
1 4
1 5
1 6
1 7
1 8
1 9
1 10
1 11
1 12
1 13
1 14
1 15
1 16
1 17
1 18
1 19
1 20
1 21
1 22
1 23
1 24
1 25
1 26
1 27
1 28
1 29
1 30
1 31
1 32
1 33
1 34
1 35
1 36
1 37
1 38
1 39
1 40
1 41
1 42
1 43
1 44
1 45
1 46
1 47
1 48
1 49
1 50
1 51
1 52
1 53
1 54
1 55
1 56
1 57
1 58
1 59
1 60
1 61
1 62
1 63
1 64
1 65
1 66
1 67
1 68
1 69
1 70
1 71
1 72
1 73
1 74
1 75
1 76
1 77
1 78
1 79
1 80
1 81
1 82
1 83
1 84
1 85
1 86
1 87
1 88
1 89
1 90
1 91
1 92
1 93
1 94
1 95
1 96
1 97
1 98
1 99
1 100
1 101
1 102
1 103
1 104
1 105
1 106
1 107
1 108
1 109
1 110
1 111
1 112
1 113
1 114
1 115
1 116
1 117
1 118
1 119

CELL_TYPES 120
1
1
1
1
1
1
1
1
1
1
1
1
1
1
1
1
1
1
1
1
1
1
1
1
1
1
1
1
1
1
1
1
1
1
1
1
1
1
1
1
1
1
1
1
1
1
1
1
1
1
1
1
1
1
1
1
1
1
1
1
1
1
1
1
1
1
1
1
1
1
1
1
1
1
1
1
1
1
1
1
1
1
1
1
1
1
1
1
1
1
1
1
1
1
1
1
1
1
1
1
1
1
1
1
1
1
1
1
1
1
1
1
1
1
1
1
1
1
1
1

POINT_DATA 120

VECTORS normal float
0.035083031396544014 -0.9993844009729334 0.0
0.08652567370467353 -0.9962496212244965 0.0
0.09315199957097255 -0.9956518994989813 0.0
0.10130087583614111 -0.9948558350609554 0.0
0.11075185661109388 -0.9938480901310803 0.0
0.1212456323371217 -0.9926225348233696 0.0
0.13248996604034044 -0.9911843465766744 0.0
0.14416682392946306 -0.9895533976891248 0.0
0.15594037860775645 -0.9877664695259044 0.0
0.1674653900575441 -0.98587795549595 0.0
0.17839539229100426 -0.9839588832920504 0.0
0.18839011916554074 -0.9820942739883954 0.0
0.19712173081709367 -0.9803790201955941 0.0
0.20427963917947525 -0.9789125747566548 0.0
0.209574022275753 -0.9777927843808024 0.0
0.21273842858811579 -0.9771091858138778 0.0
0.21353217295643628 -0.9769360322521136 0.0
0.2117434941973258 -0.9773252747499713 0.0
0.20719465202877702 -0.9782997373865915 0.0
0.19975024872203723 -0.9798468442238738 0.0
0.18901971053297154 -0.9819732934403215 0.0
0.17517330842374376 -0.9845376133068152 0.0
0.15906836488845927 -0.9872675702623438 0.0
0.14116773892396703 -0.9899856915567492 0.0
0.12196648700878358 -0.9925342190810028 0.0
0.10199332238379609 -0.9947850834170742 0.0
0.08180721668867007 -0.996648172274275 0.0
0.061990074392905936 -0.998076765923725 0.0
0.04313703810072247 -0.9990691647448123 0.0
0.02584637869092471 -0.9996659265517482 0.0
0.010637524774433013 -0.9999434199326847 0.0
-0.002519522562873888 -0.9999968259979904 0.0
-0.01405828102183689 -0.9999011774844108 0.0
-0.024441337991545256 -0.9997012658775536 0.0
-0.03413338229520958 -0.9994172863289333 0.0
-0.04359862186302755 -0.999049128007049 0.0
-0.05329886520480621 -0.998578605302497 0.0
-0.06369156043505035 -0.9979696313662797 0.0
-0.07522715729268849 -0.9971664228230214 0.0
-0.08834513116461166 -0.9960899245547601 0.0
-0.10271383396676116 -0.994710947115718 0.0
-0.1180214368519647 -0.9930110474931273 0.0
-0.1345604673037172 -0.9909053843021569 0.0
-0.15221374905419965 -0.9883475980639933 0.0
-0.1707912848825986 -0.9853072297553445 0.0
-0.18959868065227198 -0.981861670651685 0.0
-0.20678175090041379 -0.9783870949141549 0.0
-0.22076415813359251 -0.9753272202105129 0.0
-0.2306829875294793 -0.9730289611642986 0.0
-0.2362118937615688 -0.9717015700540846 0.0
-0.23746828108853618 -0.9713952931103054 0.0
-0.24343504395765497 -0.9699172023288042 0.0
-0.287996352565351 -0.9576315058043223 0.0
-0.38547613796655883 -0.922717804671822 0.0
-0.5139727986609489 -0.8578064829765694 0.0
-0.6393331058952983 -0.7689298925820685 0.0
-0.7339182226061498 -0.6792378394396398 0.0
-0.7951749765604105 -0.6063800430853168 0.0
-0.8325503526330863 -0.5539493752415681 0.0
-0.9685074770990134 -0.2489844710083424 0.0
-0.8545432913859567 0.5193801720775024 0.0
-0.8325503526330885 0.5539493752415647 0.0
-0.7951749765604127 0.606380043085314 0.0
-0.7339182226061518 0.6792378394396377 0.0
-0.6393331058953096 0.7689298925820591 0.0
-0.5139727986609388 0.8578064829765756 0.0
-0.3854761379665694 0.9227178046718176 0.0
-0.28799635256535056 0.9576315058043228 0.0
-0.24343504395764579 0.9699172023288065 0.0
-0.23746828108854431 0.9713952931103034 0.0
-0.23621189376156085 0.9717015700540866 0.0
-0.2306829875294793 0.9730289611642986 0.0
-0.2207641581335923 0.9753272202105129 0.0
-0.20678175090041392 0.9783870949141547 0.0
-0.1895986806522717 0.981861670651685 0.0
-0.1707912848826043 0.9853072297553436 0.0
-0.1522137490541944 0.9883475980639942 0.0
-0.13456046730371704 0.9909053843021569 0.0
-0.11802143685196458 0.9930110474931273 0.0
-0.10271383396676116 0.994710947115718 0.0
-0.08834513116461616 0.9960899245547598 0.0
-0.07522715729268833 0.9971664228230216 0.0
-0.06369156043505035 0.9979696313662797 0.0
-0.053298865204806097 0.998578605302497 0.0
-0.04359862186302764 0.999049128007049 0.0
-0.03413338229520524 0.9994172863289333 0.0
-0.024441337991545256 0.9997012658775536 0.0
-0.014058281021845547 0.9999011774844108 0.0
-0.0025195225628695437 0.9999968259979904 0.0
0.010637524774433036 0.9999434199326847 0.0
0.02584637869092471 0.9996659265517482 0.0
0.04313703810072228 0.9990691647448123 0.0
0.06199007439290621 0.998076765923725 0.0
0.08180721668867368 0.9966481722742749 0.0
0.1019933223837922 0.9947850834170744 0.0
0.1219664870087841 0.9925342190810028 0.0
0.14116773892396703 0.9899856915567492 0.0
0.15906836488846285 0.9872675702623432 0.0
0.1751733084237403 0.9845376133068159 0.0
0.1890197105329707 0.9819732934403215 0.0
0.1997502487220409 0.979846844223873 0.0
0.20719465202877427 0.9782997373865923 0.0
0.21174349419732755 0.977325274749971 0.0
0.2135321729564374 0.9769360322521131 0.0
0.21273842858811579 0.9771091858138778 0.0
0.2095740222757509 0.977792784380803 0.0
0.2042796391794726 0.9789125747566553 0.0
0.19712173081709367 0.9803790201955941 0.0
0.18839011916554216 0.982094273988395 0.0
0.17839539229100573 0.98395888329205 0.0
0.1674653900575411 0.9858779554959508 0.0
0.1559403786077662 0.987766469525903 0.0
0.14416682392945382 0.9895533976891262 0.0
0.13248996604033883 0.9911843465766749 0.0
0.12124563233713738 0.9926225348233674 0.0
0.11075185661109388 0.9938480901310803 0.0
0.10130087583613713 0.9948558350609558 0.0
0.09315199957097255 0.9956518994989813 0.0
0.08652567370464136 0.9962496212244992 0.0
0.08159886880463482 0.9966652520328999 0.0

VECTORS U float
16.011490186054246 0.5600812130122108 0.0
13.559652210404574 1.1749216279062296 0.0
13.926281563955571 1.2989252073644764 0.0
14.347531827999902 1.4553868750671128 0.0
14.594004281834188 1.6190319073829258 0.0
14.723520784757124 1.789270314528174 0.0
14.788923484984808 1.9656935483163416 0.0
14.825284647132506 2.1467618952075043 0.0
14.856434821675396 2.3302862599555487 0.0
14.899441397238995 2.513757702028612 0.0
14.966607363448041 2.6943967694112416 0.0
15.066396607967043 2.8690500387787794 0.0
15.204155246502438 3.0340660636842616 0.0
15.382819130359179 3.1852105535370336 0.0
15.60349710622711 3.3176217505450882 0.0
15.865825839990148 3.4257939529025325 0.0
16.168070349306195 3.5035897975578107 0.0
16.506938697800905 3.5442899249508923 0.0
16.876963674787653 3.5406847521451965 0.0
17.26931416369491 3.4853030692067066 0.0
17.676168603508536 3.362870333136421 0.0
18.09623916784714 3.1809428514205402 0.0
18.48717922270419 2.940265224373178 0.0
18.83904394952641 2.6483272859459617 0.0
19.142800960443843 2.3145936937735474 0.0
19.390798476582205 1.9505948574770835 0.0
19.57791001833157 1.569692725720223 0.0
19.702466076981445 1.1865538144963628 0.0
19.766965955342002 0.8164330932034339 0.0
19.77884877926794 0.4744001774322796 0.0
19.751400655742067 0.17316867590070617 0.0
19.700550951143896 -0.08658058729822915 0.0
19.638721297749715 -0.31307717499771043 0.0
19.573502517995465 -0.5155483739073337 0.0
19.50900816429476 -0.7033592397253787 0.0
19.446505361316543 -0.8857919376243292 0.0
19.384657622728753 -1.0719043726561812 0.0
19.31958233019279 -1.270403791680851 0.0
19.244936066649217 -1.4895067880707153 0.0
19.152794830440026 -1.7369636712544365 0.0
19.056927171192257 -2.001738109720134 0.0
18.926568141519766 -2.2819191037516466 0.0
18.76155830172002 -2.5786367366036833 0.0
18.556355538142117 -2.887178345313049 0.0
18.304205624906842 -3.2006106714750713 0.0
18.00060690511631 -3.50218401034776 0.0
17.657435629720254 -3.756575615555531 0.0
17.303458159146437 -3.939712305330286 0.0
16.975809536555627 -4.04605016819509 0.0
16.71975138324313 -4.084234937108068 0.0
16.60782117653713 -4.07808845895995 0.0
16.68590599541541 -4.204364424455209 0.0
16.65397627699968 -5.023412208298009 0.0
15.874883326660207 -6.645615690083307 0.0
13.90363763874998 -8.343475542351412 0.0
11.024830850474252 -9.17885473956593 0.0
8.10967311798646 -8.773850866619517 0.0
5.71783887307372 -7.507911484249699 0.0
3.8880752883749254 -5.850760925300367 0.0
0.5358601606723996 -2.112759887819469 0.0
2.5059864838824892 4.127550017343034 0.0
3.8725139717098633 5.827987901620145 0.0
5.668374522255134 7.443385046718869 0.0
8.004824370254642 8.66093151233073 0.0
10.8278005261494 9.015508642195462 0.0
13.586121476449888 8.153840299352327 0.0
15.44214463058808 6.465601852343396 0.0
16.138785637474783 4.869422043021227 0.0
16.116803796019727 4.062682793920094 0.0
15.988825277364752 3.92816534579263 0.0
16.038823207199904 3.9203839479781672 0.0
16.221100105141026 3.869117232028652 0.0
16.46649834216113 3.7526072380391327 0.0
16.73303510766538 3.563921434141361 0.0
16.98729357707333 3.3096317111599287 0.0
17.204206890464324 3.0134805942683105 0.0
17.374456267288853 2.709135350258563 0.0
17.503638994573425 2.4122460252204787 0.0
17.59913762560135 2.1290369663610154 0.0
17.667143102624447 1.8635607173232824 0.0
17.71820091112888 1.6159801093326218 0.0
17.748043487717155 1.3829462098629552 0.0
17.76879962086023 1.1779375126138953 0.0
17.78781249023075 0.9933063543786657 0.0
17.810627729467 0.8211428441287737 0.0
17.840665381696756 0.6532076516643438 0.0
17.879241456479747 0.48101900987647794 0.0
17.925556497416125 0.2959254952568941 0.0
17.976492027981905 0.08918771211907006 0.0
18.026034490523447 -0.14787590501221037 0.0
18.064008290946738 -0.4231705907629873 0.0
18.077083128246464 -0.736659305580036 0.0
18.053993324648033 -1.0774829236647618 0.0
17.98820921658618 -1.432689917609605 0.0
17.877082630146184 -1.7890949806405891 0.0
17.721187817157347 -2.133860525676684 0.0
17.52376097031729 -2.4550420022282795 0.0
17.28996296755084 -2.741990390145144 0.0
17.02591822289627 -2.9855152247015813 0.0
16.738063265080367 -3.17769453904007 0.0
16.43881496575388 -3.3123491651796266 0.0
16.156936572408075 -3.385098298824804 0.0
15.890862532444066 -3.408244886816986 0.0
15.648037278668879 -3.3878292429785093 0.0
15.43332756610107 -3.329953790311468 0.0
15.249891833559122 -3.2405216238111367 0.0
15.099662651292581 -3.125122602386862 0.0
14.983443794861337 -2.9889505634863123 0.0
14.900746454973037 -2.8367506344919073 0.0
14.849390732596484 -2.672793231224941 0.0
14.8248952830375 -2.500877913526889 0.0
14.81975567672793 -2.3243813703954226 0.0
14.822712613832731 -2.146349077949081 0.0
14.817794438179527 -1.96956923659352 0.0
14.782210588885977 -1.7964934587920283 0.0
14.681630315145034 -1.6288763250424056 0.0
14.463318205379348 -1.4672727786936193 0.0
14.068866394268845 -1.312372204574615 0.0
13.729149833779354 -1.189758412132619 0.0
15.950004537219693 -1.3040142277642417 0.0