# vtk DataFile Version 4.0
 
ASCII
DATASET UNSTRUCTURED_GRID
POINTS 61 float
1.0019999999999998 0.8349458530023905 0.0
0.9973695891144106 0.8346657007607802 0.0
0.9881185201494409 0.8337808711512232 0.0
0.9742681698196043 0.8322040623536288 0.0
0.9558526228381611 0.8296903412387697 0.0
0.9329152100257428 0.8259968279986971 0.0
0.9054981032301624 0.8209396889610289 0.0
0.8736258701500808 0.8144486759239272 0.0
0.8372876113476015 0.8066132286970823 0.0
0.7964245900055922 0.7977171538243567 0.0
0.7509308956113274 0.7882592763973603 0.0
0.7006736165135375 0.778951750475255 0.0
0.6501420697523838 0.771278785126586 0.0
0.5993534296362516 0.7655551882613076 0.0
0.5483755088847349 0.7618802523287675 0.0
0.497294903231697 0.760117280577752 0.0
0.4461832322658784 0.7599098123757717 0.0
0.395080053865046 0.7608937345130363 0.0
0.34400586998605465 0.7628803071391491 0.0
0.2929807490158749 0.7658701925283866 0.0
0.24203989583334204 0.7700505435737866 0.0
0.1958598818671868 0.7751883580272207 0.0
0.1544808792024877 0.7812307267161248 0.0
0.11793211406036958 0.7880044281180397 0.0
0.0861732001662357 0.7950255493788146 0.0
0.05907010044516486 0.8015613853648 0.0
0.03653789308883216 0.8072220729399656 0.0
0.019269795262827037 0.8139771399271654 0.0
0.008283477040819831 0.8224730811152369 0.0
0.0024774658906634842 0.8297156621155092 0.0
0.0 0.8363541732239597 0.0
0.0024774658906634613 0.840284337884491 0.0
0.008283477040819769 0.8475269188847633 0.0
0.019269795262826944 0.8560228600728348 0.0
0.036537893088832075 0.8627779270600344 0.0
0.05907010044516479 0.8684386146351999 0.0
0.08617320016623566 0.8749744506211853 0.0
0.11793211406036956 0.8819955718819604 0.0
0.1544808792024877 0.8887692732838752 0.0
0.19585988186718678 0.8948116419727792 0.0
0.24203989583334204 0.8999494564262134 0.0
0.2929807490158749 0.9041298074716134 0.0
0.3440058699860547 0.9071196928608509 0.0
0.395080053865046 0.9091062654869636 0.0
0.4461832322658784 0.9100901876242283 0.0
0.497294903231697 0.9098827194222481 0.0
0.548375508884735 0.9081197476712325 0.0
0.5993534296362516 0.9044448117386922 0.0
0.6501420697523839 0.898721214873414 0.0
0.7006736165135377 0.8910482495247449 0.0
0.7509308956113274 0.8817407236026398 0.0
0.7964245900055923 0.8722828461756433 0.0
0.8372876113476018 0.8633867713029176 0.0
0.8736258701500808 0.8555513240760729 0.0
0.9054981032301624 0.849060311038971 0.0
0.932915210025743 0.8440031720013027 0.0
0.9558526228381611 0.8403096587612303 0.0
0.9742681698196045 0.8377959376463711 0.0
0.9881185201494409 0.8362191288487767 0.0
0.9973695891144108 0.8353342992392198 0.0
1.002 0.8349458530023905 0.0

CELLS 60 180
2 0 1
2 1 2
2 2 3
2 3 4
2 4 5
2 5 6
2 6 7
2 7 8
2 8 9
2 9 10
2 10 11
2 11 12
2 12 13
2 13 14
2 14 15
2 15 16
2 16 17
2 17 18
2 18 19
2 19 20
2 20 21
2 21 22
2 22 23
2 23 24
2 24 25
2 25 26
2 26 27
2 27 28
2 28 29
2 29 30
2 30 31
2 31 32
2 32 33
2 33 34
2 34 35
2 35 36
2 36 37
2 37 38
2 38 39
2 39 40
2 40 41
2 41 42
2 42 43
2 43 44
2 44 45
2 45 46
2 46 47
2 47 48
2 48 49
2 49 50
2 50 51
2 51 52
2 52 53
2 53 54
2 54 55
2 55 56
2 56 57
2 57 58
2 58 59
2 59 60

CELL_TYPES 60
7
7
7
7
7
7
7
7
7
7
7
7
7
7
7
7
7
7
7
7
7
7
7
7
7
7
7
7
7
7
7
7
7
7
7
7
7
7
7
7
7
7
7
7
7
7
7
7
7
7
7
7
7
7
7
7
7
7
7
7

CELL_DATA 60

SCALARS mu float
LOOKUP_TABLE default
0.0
0.41371737553366505
0.8160908230743392
1.242225740552723
1.7296736380895945
2.314037158496406
3.0268573647073964
3.8951199463619606
4.94252233809574
6.189668412763999
7.649617667449966
9.278615598550738
11.000996612400202
12.781032376851716
14.585959013328996
16.388122344206707
18.171853098488267
19.932208813036844
21.667184731768515
23.369951158504957
24.976698199216514
26.428054733389473
27.710115012188858
28.8109916773839
29.7295767268852
30.48984277738882
31.149345810240014
31.666549526990277
31.954247046472435
32.081065964094975
32.05539467929413
31.952427851136925
31.675225715248178
31.1759858156202
30.54378306840846
29.820817508526343
28.95476343499962
27.926162210940774
26.73890695369701
25.40592543788917
23.94078999723437
22.396897025436413
20.83040162250317
19.24513823980362
17.640367013650014
16.01756279313272
14.38729754460616
12.7706711898354
11.193874890711575
9.68718778156458
8.32057439385678
7.138635383723158
6.13410490712662
5.292272548324536
4.594519441751155
4.017825263033455
3.5334901467250313
3.107756919845128
2.7040620963447717
2.286445327179921