# vtk DataFile Version 4.0
 
ASCII
DATASET UNSTRUCTURED_GRID
POINTS 121 float
1.0019999999999998 0.8349458530023905 0.0
0.9996844052794356 0.8348645648792178 0.0
0.9962733753688545 0.834568312158261 0.0
0.9917686512255228 0.8341468555611529 0.0
0.9861726664797917 0.8335770462119687 0.0
0.9794885994338574 0.8328321910953757 0.0
0.9717203732851442 0.8318833273949299 0.0
0.9628725839460179 0.8307006580830892 0.0
0.9529503280313847 0.8292550967573755 0.0
0.9419589262054414 0.8275198653893882 0.0
0.9299035516191364 0.8254720885868632 0.0
0.9167887633522974 0.8230943288680338 0.0
0.9026179940241387 0.8203760227001773 0.0
0.8873930226499327 0.8173147855183316 0.0
0.8711134865024742 0.8139175692030353 0.0
0.8537764688689587 0.8102016607020103 0.0
0.8353762238726109 0.8061955176189332 0.0
0.8159040811023774 0.8019394263083683 0.0
0.7953486166277141 0.7974859592947093 0.0
0.7736960341164144 0.792900146657227 0.0
0.7509308956113276 0.7882592763973604 0.0
0.7258349873150152 0.7834285734104066 0.0
0.7006736165135378 0.778951750475255 0.0
0.6754425473678084 0.7748865253688207 0.0
0.6501420697523841 0.771278785126586 0.0
0.6247765024844115 0.7681617650065904 0.0
0.5993534296362516 0.7655551882613076 0.0
0.5738827381006187 0.7634644942334332 0.0
0.5483755088847349 0.7618802523287675 0.0
0.522842866452894 0.7607778235798273 0.0
0.497294903231697 0.760117280577752 0.0
0.4717397749284214 0.759845421885529 0.0
0.4461832322658783 0.7599098123757718 0.0
0.42062909868251963 0.7602690950721761 0.0
0.395080053865046 0.7608937345130363 0.0
0.36953825743300117 0.7617660707374014 0.0
0.34400586998605465 0.7628803071391491 0.0
0.3184855173330039 0.7642424491165671 0.0
0.2929807490158749 0.7658701925283866 0.0
0.26749654103155446 0.7677927447510022 0.0
0.24203989583334204 0.7700505435737866 0.0
0.21892954632485423 0.7724369178357886 0.0
0.1969515602311578 0.7750490473830266 0.0
0.17611072266455974 0.7778791388189887 0.0
0.156411407619959 0.7809129971524456 0.0
0.13785706271755233 0.7841291720777263 0.0
0.12044813925301463 0.7874908563343914 0.0
0.10417749167025109 0.7909296516874134 0.0
0.08903102847210714 0.7943580356465096 0.0
0.07499104628266731 0.7976865953971313 0.0
0.062039575359674796 0.8008349812472721 0.0
0.050161230145812204 0.8037387735963997 0.0
0.03936857179885055 0.8064475731236215 0.0
0.029768667243598685 0.8093346309116439 0.0
0.021537715699745375 0.8127732070362728 0.0
0.014831331511181352 0.8167914781949741 0.0
0.009664550272156873 0.8210874411025085 0.0
0.005845903885168461 0.8252134982895052 0.0
0.003103094970289515 0.8288102740070921 0.0
0.001206649900475409 0.8316605092130339 0.0
0.0 0.8363541732239597 0.0
0.0012066499004753978 0.838339490786966 0.0
0.003103094970289487 0.8411897259929078 0.0
0.005845903885168413 0.8447865017104949 0.0
0.009664550272156803 0.8489125588974913 0.0
0.014831331511181265 0.8532085218050259 0.0
0.02153771569974528 0.8572267929637271 0.0
0.02976866724359859 0.860665369088356 0.0
0.03936857179885048 0.8635524268763786 0.0
0.05016123014581212 0.8662612264036003 0.0
0.06203957535967474 0.869165018752728 0.0
0.07499104628266726 0.8723134046028687 0.0
0.08903102847210709 0.8756419643534903 0.0
0.10417749167025105 0.8790703483125866 0.0
0.12044813925301458 0.8825091436656085 0.0
0.1378570627175523 0.8858708279222738 0.0
0.15641140761995898 0.8890870028475545 0.0
0.17611072266455968 0.8921208611810113 0.0
0.19695156023115779 0.8949509526169734 0.0
0.21892954632485423 0.8975630821642113 0.0
0.24203989583334204 0.8999494564262134 0.0
0.2674965410315544 0.9022072552489978 0.0
0.2929807490158749 0.9041298074716134 0.0
0.3184855173330039 0.9057575508834328 0.0
0.3440058699860547 0.9071196928608509 0.0
0.36953825743300117 0.9082339292625986 0.0
0.395080053865046 0.9091062654869636 0.0
0.42062909868251963 0.9097309049278238 0.0
0.4461832322658784 0.9100901876242283 0.0
0.4717397749284214 0.9101545781144711 0.0
0.497294903231697 0.9098827194222481 0.0
0.522842866452894 0.9092221764201728 0.0
0.548375508884735 0.9081197476712325 0.0
0.5738827381006187 0.9065355057665669 0.0
0.5993534296362518 0.9044448117386922 0.0
0.6247765024844116 0.9018382349934096 0.0
0.6501420697523841 0.898721214873414 0.0
0.6754425473678084 0.8951134746311793 0.0
0.7006736165135379 0.8910482495247449 0.0
0.7258349873150152 0.8865714265895934 0.0
0.7509308956113278 0.8817407236026397 0.0
0.7736960341164146 0.8770998533427729 0.0
0.7953486166277141 0.8725140407052907 0.0
0.8159040811023779 0.8680605736916316 0.0
0.835376223872611 0.8638044823810668 0.0
0.8537764688689589 0.8597983392979898 0.0
0.8711134865024742 0.8560824307969648 0.0
0.8873930226499327 0.8526852144816686 0.0
0.9026179940241389 0.8496239772998228 0.0
0.9167887633522974 0.8469056711319664 0.0
0.9299035516191362 0.844527911413137 0.0
0.9419589262054414 0.8424801346106119 0.0
0.9529503280313848 0.8407449032426243 0.0
0.9628725839460179 0.8392993419169106 0.0
0.9717203732851444 0.8381166726050703 0.0
0.9794885994338574 0.8371678089046242 0.0
0.9861726664797917 0.8364229537880312 0.0
0.9917686512255232 0.835853144438847 0.0
0.9962733753688549 0.8354316878417388 0.0
0.9996844052794357 0.8351354351207824 0.0
1.002 0.8349458530023905 0.0

CELLS 120 360
2 0 1
2 1 2
2 2 3
2 3 4
2 4 5
2 5 6
2 6 7
2 7 8
2 8 9
2 9 10
2 10 11
2 11 12
2 12 13
2 13 14
2 14 15
2 15 16
2 16 17
2 17 18
2 18 19
2 19 20
2 20 21
2 21 22
2 22 23
2 23 24
2 24 25
2 25 26
2 26 27
2 27 28
2 28 29
2 29 30
2 30 31
2 31 32
2 32 33
2 33 34
2 34 35
2 35 36
2 36 37
2 37 38
2 38 39
2 39 40
2 40 41
2 41 42
2 42 43
2 43 44
2 44 45
2 45 46
2 46 47
2 47 48
2 48 49
2 49 50
2 50 51
2 51 52
2 52 53
2 53 54
2 54 55
2 55 56
2 56 57
2 57 58
2 58 59
2 59 60
2 60 61
2 61 62
2 62 63
2 63 64
2 64 65
2 65 66
2 66 67
2 67 68
2 68 69
2 69 70
2 70 71
2 71 72
2 72 73
2 73 74
2 74 75
2 75 76
2 76 77
2 77 78
2 78 79
2 79 80
2 80 81
2 81 82
2 82 83
2 83 84
2 84 85
2 85 86
2 86 87
2 87 88
2 88 89
2 89 90
2 90 91
2 91 92
2 92 93
2 93 94
2 94 95
2 95 96
2 96 97
2 97 98
2 98 99
2 99 100
2 100 101
2 101 102
2 102 103
2 103 104
2 104 105
2 105 106
2 106 107
2 107 108
2 108 109
2 109 110
2 110 111
2 111 112
2 112 113
2 113 114
2 114 115
2 115 116
2 116 117
2 117 118
2 118 119
2 119 120

CELL_TYPES 120
7
7
7
7
7
7
7
7
7
7
7
7
7
7
7
7
7
7
7
7
7
7
7
7
7
7
7
7
7
7
7
7
7
7
7
7
7
7
7
7
7
7
7
7
7
7
7
7
7
7
7
7
7
7
7
7
7
7
7
7
7
7
7
7
7
7
7
7
7
7
7
7
7
7
7
7
7
7
7
7
7
7
7
7
7
7
7
7
7
7
7
7
7
7
7
7
7
7
7
7
7
7
7
7
7
7
7
7
7
7
7
7
7
7
7
7
7
7
7
7

CELL_DATA 120

SCALARS mu float
LOOKUP_TABLE default
0.0
0.24159681527980917
0.4031914417795244
0.5507684754689297
0.70331037533175
0.8701638932868934
1.057318211351004
1.2690734923106994
1.508706127879095
1.7788692825470884
2.081885322538055
2.4199515712703383
2.795267231512141
3.210098591881513
3.666801178056904
4.167811755756352
4.7156176438561515
5.312714061010253
5.961602663727992
6.665220957739473
7.436349365776139
8.26607909604884
9.125280806331551
10.00814198097797
10.910519620435167
11.828506534102894
12.758224068547417
13.695850474962187
14.637732766156287
15.580552280447082
16.521580492103844
17.459087660191518
18.392229418310777
19.320653418866414
20.244282837871303
21.163150952292977
22.077234839495947
22.986227817010466
23.88905606849155
24.781998521725914
25.634003719105618
26.43211409408838
27.187340432561005
27.89955461556973
28.567867206782438
29.191106803940187
29.768007013250706
30.29823168513058
30.782800462149144
31.224068473004785
31.62582703414535
31.994930301558693
32.34098125124683
32.662394973098685
32.94451491529384
33.17157998881303
33.337237531079616
33.44789993611656
33.51672636021846
33.564515814770814
33.54683703759785
33.511217582379146
33.4453580757212
33.33711572880695
33.17500289301373
32.95364425258862
32.67991217520413
32.36948923952272
32.03670648547383
31.683240343431873
31.300150842388234
30.88127128453296
30.423426649590926
29.924825990658608
29.384923501623206
28.804398494921145
28.18473047141786
27.527238456975603
26.832915054044843
26.10199562263762
25.324519443270912
24.51232055588066
23.69348530766226
22.871074055687448
22.045737118765192
21.217432507628107
20.38585902721684
19.550652605643936
18.711525306706708
17.86840320298032
17.02161166389172
16.172225451675786
15.322179296826603
14.473921424630305
13.630211367475857
12.794000843830936
11.968362345437445
11.156491687026485
10.361926605951881
9.589914440023053
8.867787503740534
8.204659688575422
7.5892376998267865
7.019431914986113
6.493543175326044
6.009839768581064
5.566544585229981
5.161866730974845
4.7940261718391355
4.4612598847836
4.161801037938462
3.8938173965572713
3.6552895230374762
3.4438109534206567
3.256301748210242
3.0886126760382955
2.9348600901075486
2.7857419523010347
2.622171485977568
2.376813911489578