# vtk DataFile Version 4.0
 
ASCII
DATASET UNSTRUCTURED_GRID
POINTS 200 float
0.9847607392833333 0.8341161246951843 0.0
0.9683281718500002 0.8316451058766792 0.0
0.9518956044166667 0.829405040417 0.0
0.9354630369833334 0.8267401842932023 0.0
0.9190304695499999 0.8237454790630855 0.0
0.9025979021166668 0.8205419130445613 0.0
0.8861653346833334 0.8172137035666847 0.0
0.8697327672499998 0.8138063466175612 0.0
0.8533001998166667 0.8103456623089578 0.0
0.8368676323833334 0.8068482418246723 0.0
0.82043506495 0.8033377280628593 0.0
0.8040024975166666 0.7998353802991214 0.0
0.7875699300833334 0.7963642588055514 0.0
0.77113736265 0.7929481319383219 0.0
0.7547047952166667 0.789600418320318 0.0
0.7382722277833333 0.7863386665378402 0.0
0.7218396603499999 0.7831797622829647 0.0
0.7054070929166667 0.7801463210693275 0.0
0.6889745254833333 0.7772732055436862 0.0
0.67254195805 0.7746048808306586 0.0
0.6561093906166666 0.7721813594191163 0.0
0.6396768231833334 0.7700238002160278 0.0
0.62324425575 0.7681300732889147 0.0
0.6068116883166668 0.7664828114942464 0.0
0.5903791208833333 0.7650593502680838 0.0
0.57394655345 0.7638382724175876 0.0
0.5575139860166667 0.7628033786985784 0.0
0.5410814185833333 0.7619440904393803 0.0
0.52464885115 0.7612524457327652 0.0
0.5082162837166666 0.7607237809460416 0.0
0.48693360795253354 0.760294796281408 0.0
0.46083663792996893 0.760055685702044 0.0
0.43484701196062625 0.7601462167246688 0.0
0.40903596580277096 0.7605394004460363 0.0
0.38347424573981775 0.7612149755397202 0.0
0.35823191466968574 0.7621633524026314 0.0
0.3333781600672654 0.7633768409559066 0.0
0.30898110434635856 0.7648462612211009 0.0
0.28510761814087776 0.7665609285330446 0.0
0.2618231370170865 0.7685073418772019 0.0
0.23919148211926064 0.7706689317398825 0.0
0.21727468524036805 0.7730265400853109 0.0
0.19613281879723599 0.7755632107575179 0.0
0.17582383117623188 0.7782723729397756 0.0
0.15640338790076447 0.7811553013156163 0.0
0.13792471905595344 0.7842048587731311 0.0
0.12043847338866587 0.7873851665160041 0.0
0.10399257948282167 0.7906407662612847 0.0
0.08863211439047675 0.7939434524281802 0.0
0.0743991800787564 0.7973028155813604 0.0
0.06133278803128992 0.8007566581339781 0.0
0.04946875232044565 0.8043002550419986 0.0
0.038839591443447966 0.8077843830289142 0.0
0.029474439191436805 0.8110363779373475 0.0
0.02139896479577118 0.8140513216048644 0.0
0.014635302570450268 0.8170339600422155 0.0
0.009201991243497302 0.8203117900377639 0.0
0.005113923143594636 0.8240682914321784 0.0
0.0023823033812459373 0.8281325719843475 0.0
0.0010146191363472152 0.8311329419667208 0.0
0.0010146191363472152 0.8360154468214702 0.0
0.0023823033812459373 0.8418809689034094 0.0
0.005113923143594636 0.8458066733081774 0.0
0.009201991243497302 0.8495889224789954 0.0
0.014635302570450268 0.8528903413628464 0.0
0.02139896479577118 0.8558799475460237 0.0
0.029474439191436805 0.8588978126294039 0.0
0.038839591443447966 0.8621477280091758 0.0
0.04946875232044565 0.8656315738228206 0.0
0.06133278803128992 0.8691752338068383 0.0
0.0743991800787564 0.872629856877264 0.0
0.08863211439047675 0.8759902633128465 0.0
0.10399257948282167 0.8792910277660357 0.0
0.12043847338866587 0.882546253217684 0.0
0.13792471905595344 0.8857268516690189 0.0
0.15640338790076447 0.8887766247496696 0.0
0.17582383117623188 0.8916603042112572 0.0
0.19613281879723599 0.8943700937825761 0.0
0.21727468524036805 0.8969066000530282 0.0
0.23919148211926064 0.8992637606797271 0.0
0.2618231370170865 0.9014252224202087 0.0
0.28510761814087776 0.9033716483087736 0.0
0.30898110434635856 0.9050863242413851 0.0
0.3333781600672654 0.9065557523863377 0.0
0.35823191466968574 0.9077692667782202 0.0
0.38347424573981775 0.9087176332690214 0.0
0.40903596580277096 0.9093929146758923 0.0
0.43484701196062625 0.909785804714389 0.0
0.46083663792996893 0.9098768995157226 0.0
0.48693360795253354 0.9096362934007374 0.0
0.5082162837166666 0.9092023714900312 0.0
0.52464885115 0.908671216546311 0.0
0.5410814185833333 0.9079803903126796 0.0
0.5575139860166667 0.9071217096440966 0.0
0.57394655345 0.9060857135049294 0.0
0.5903791208833333 0.9048629592001844 0.0
0.6068116883166668 0.9034394424438792 0.0
0.62324425575 0.901792113848461 0.0
0.6396768231833334 0.8998981176818118 0.0
0.6561093906166666 0.8977412807085394 0.0
0.67254195805 0.8953170789994901 0.0
0.6889745254833333 0.8926488471317594 0.0
0.7054070929166667 0.8897806487634028 0.0
0.7218396603499999 0.8867488997054701 0.0
0.7382722277833333 0.8835871545357874 0.0
0.7547047952166667 0.8803270926618577 0.0
0.77113736265 0.8769825494542082 0.0
0.7875699300833334 0.873564452223634 0.0
0.8040024975166666 0.8700934670477586 0.0
0.82043506495 0.8665950246434055 0.0
0.8368676323833334 0.8630865599136355 0.0
0.8533001998166667 0.8595907546804284 0.0
0.8697327672499998 0.856129586081322 0.0
0.8861653346833334 0.8527249575032197 0.0
0.9025979021166668 0.8494016273476415 0.0
0.9190304695499999 0.8461948675775347 0.0
0.9354630369833334 0.843199021914423 0.0
0.9518956044166667 0.84053177980747 0.0
0.9683281718500002 0.8382629466236391 0.0
0.9847607392833333 0.8364062943188139 0.0
0.0005679965175882863 0.010963104831919942 0.0
0.001936904924040669 0.02297510659364477 0.0
0.00467096965415496 0.03714691338326611 0.0
0.008762696826548455 0.05132355908002881 0.0
0.014200871301454124 0.06521827430368372 0.0
0.020970587420639113 0.07861322332942983 0.0
0.0290532898627779 0.09143011764497402 0.0
0.03842682450229835 0.10357125249953089 0.0
0.04906549913229993 0.11488527226694012 0.0
0.060940153885107026 0.12525782721083667 0.0
0.07401824115743937 0.13456546332873653 0.0
0.08826391482113015 0.14265825047217254 0.0
0.10363812847487186 0.1493891124647806 0.0
0.12009874246768804 0.1545878830754621 0.0
0.13760063940078754 0.15804797963358397 0.0
0.15609584779121888 0.15965243387681527 0.0
0.17553367355837 0.1600036422136749 0.0
0.19586083897291975 0.1600067129722727 0.0
0.21702162868739083 0.15999791039946065 0.0
0.23895804244804433 0.16000020987783048 0.0
0.2616099540695438 0.1600000585865024 0.0
0.2849152762366497 0.15999992694993187 0.0
0.3088101306812351 0.16000002374308858 0.0
0.33322902326817844 0.15999998261265563 0.0
0.3581050235102352 0.159999996 0.0
0.3833699480198516 0.159999996 0.0
0.4089545473950899 0.159999996 0.0
0.4347886960274264 0.159999996 0.0
0.46080158431116974 0.159999996 0.0
0.4869219127276677 0.159999996 0.0
0.5082162837166666 0.159999996 0.0
0.52464885115 0.159999996 0.0
0.5410814185833333 0.159999996 0.0
0.5575139860166667 0.16000000002798495 0.0
0.57394655345 0.16000003487291237 0.0
0.5903791208833333 0.15999999218384764 0.0
0.6068116883166668 0.15999993030526127 0.0
0.62324425575 0.1600003935762322 0.0
0.6396768231833334 0.15999942205253517 0.0
0.6561093906166666 0.15999874781638446 0.0
0.67254195805 0.16000270427239488 0.0
0.6889745254833333 0.16000683111635083 0.0
0.7054070929166667 0.1599773001696792 0.0
0.7218396603499999 0.15997295583182253 0.0
0.7382722277833333 0.1601751656540193 0.0
0.7547047952166667 0.16004780574585536 0.0
0.77113736265 0.15779919836571463 0.0
0.7875699300833334 0.1534510140905233 0.0
0.8040024975166666 0.14886660804022006 0.0
0.82043506495 0.14455701182060743 0.0
0.8368676323833334 0.14024947321414868 0.0
0.8533001998166667 0.13589332455402797 0.0
0.8697327672499998 0.13154267619498672 0.0
0.8861653346833334 0.12719782585979833 0.0
0.9025979021166668 0.12285318818085579 0.0
0.9190304695499999 0.11850654198840559 0.0
0.9354630369833334 0.11416064578590553 0.0
0.9518956044166667 0.10981481420348937 0.0
0.9683281718500002 0.10546885753542866 0.0
0.9847607392833333 0.10112292330963868 0.0
1.001452877925 0.09670835111501494 0.0
1.018404587775 0.09222511918120886 0.0
1.035356297625 0.08774187143536366 0.0
1.0523080074750002 0.08325862714183732 0.0
1.069259717325 0.07877539116126694 0.0
1.0862114271749999 0.07429216694241769 0.0
1.1031631370250001 0.06980894250040154 0.0
1.120114846875 0.06532570295824958 0.0
1.137066556725 0.0608424565023502 0.0
1.154018266575 0.056359215306615675 0.0
1.170969976425 0.05187597850410605 0.0
1.1879216862750002 0.047392742324965445 0.0
1.204873396125 0.042909510251978554 0.0
1.221825105975 0.038426279556039306 0.0
1.238776815825 0.03394304278843004 0.0
1.255728525675 0.029459801375131073 0.0
1.2726802355250002 0.024976565453338567 0.0
1.289631945375 0.020493343497435992 0.0
1.3065836552249999 0.01601013002733094 0.0
1.3235353650750001 0.011526905009774158 0.0

CELLS 200 400
1 0
1 1
1 2
1 3
1 4
1 5
1 6
1 7
1 8
1 9
1 10
1 11
1 12
1 13
1 14
1 15
1 16
1 17
1 18
1 19
1 20
1 21
1 22
1 23
1 24
1 25
1 26
1 27
1 28
1 29
1 30
1 31
1 32
1 33
1 34
1 35
1 36
1 37
1 38
1 39
1 40
1 41
1 42
1 43
1 44
1 45
1 46
1 47
1 48
1 49
1 50
1 51
1 52
1 53
1 54
1 55
1 56
1 57
1 58
1 59
1 60
1 61
1 62
1 63
1 64
1 65
1 66
1 67
1 68
1 69
1 70
1 71
1 72
1 73
1 74
1 75
1 76
1 77
1 78
1 79
1 80
1 81
1 82
1 83
1 84
1 85
1 86
1 87
1 88
1 89
1 90
1 91
1 92
1 93
1 94
1 95
1 96
1 97
1 98
1 99
1 100
1 101
1 102
1 103
1 104
1 105
1 106
1 107
1 108
1 109
1 110
1 111
1 112
1 113
1 114
1 115
1 116
1 117
1 118
1 119
1 120
1 121
1 122
1 123
1 124
1 125
1 126
1 127
1 128
1 129
1 130
1 131
1 132
1 133
1 134
1 135
1 136
1 137
1 138
1 139
1 140
1 141
1 142
1 143
1 144
1 145
1 146
1 147
1 148
1 149
1 150
1 151
1 152
1 153
1 154
1 155
1 156
1 157
1 158
1 159
1 160
1 161
1 162
1 163
1 164
1 165
1 166
1 167
1 168
1 169
1 170
1 171
1 172
1 173
1 174
1 175
1 176
1 177
1 178
1 179
1 180
1 181
1 182
1 183
1 184
1 185
1 186
1 187
1 188
1 189
1 190
1 191
1 192
1 193
1 194
1 195
1 196
1 197
1 198
1 199

CELL_TYPES 200
1
1
1
1
1
1
1
1
1
1
1
1
1
1
1
1
1
1
1
1
1
1
1
1
1
1
1
1
1
1
1
1
1
1
1
1
1
1
1
1
1
1
1
1
1
1
1
1
1
1
1
1
1
1
1
1
1
1
1
1
1
1
1
1
1
1
1
1
1
1
1
1
1
1
1
1
1
1
1
1
1
1
1
1
1
1
1
1
1
1
1
1
1
1
1
1
1
1
1
1
1
1
1
1
1
1
1
1
1
1
1
1
1
1
1
1
1
1
1
1
1
1
1
1
1
1
1
1
1
1
1
1
1
1
1
1
1
1
1
1
1
1
1
1
1
1
1
1
1
1
1
1
1
1
1
1
1
1
1
1
1
1
1
1
1
1
1
1
1
1
1
1
1
1
1
1
1
1
1
1
1
1
1
1
1
1
1
1
1
1
1
1
1
1
1
1
1
1
1
1

POINT_DATA 200

VECTORS normal float
0.1754198612980032 -0.9844937136732715 0.0
0.12165339069047075 -0.9925726434541261 0.0
0.14841162726414583 -0.9889256740993269 0.0
0.17167751163588574 -0.985153202298257 0.0
0.18686863837955742 -0.9823849103025608 0.0
0.19581923106618382 -0.980640009761303 0.0
0.20118991049110582 -0.979552254816751 0.0
0.20487797829960408 -0.9787875224009892 0.0
0.20727849635914103 -0.9782819761945396 0.0
0.20906491148541131 -0.977901765406729 0.0
0.20876975897330172 -0.9779648192743078 0.0
0.2081351924466744 -0.9781000673066054 0.0
0.20521084717712848 -0.9787177878228459 0.0
0.2018593196137967 -0.9794145266867624 0.0
0.1973853153871781 -0.9803259852056887 0.0
0.19199977155033793 -0.9813949702971877 0.0
0.18555003611151585 -0.9826348172637765 0.0
0.17750530813676194 -0.984119843100053 0.0
0.16693992549800124 -0.9859670690620058 0.0
0.1535999693359885 -0.9881331132089358 0.0
0.138182573395165 -0.9904067732047727 0.0
0.12215281130317669 -0.9925113050694842 0.0
0.10679584715648245 -0.994280969862206 0.0
0.09267674240765128 -0.9956962495744904 0.0
0.07991505350709432 -0.9968016774780017 0.0
0.06828557515282421 -0.9976658159053301 0.0
0.05741621086048212 -0.9983503286574432 0.0
0.047020416297139024 -0.998893928528572 0.0
0.03708174679836295 -0.9993122355171993 0.0
0.027226176447126035 -0.9996292989484 0.0
0.01570275995561977 -0.9998767040639442 0.0
0.0026020907167106622 -0.9999966145562205 0.0
-0.009601951230613954 -0.9999539002036868 0.0
-0.020906251119871103 -0.9997814404479176 0.0
-0.031992910728686964 -0.9994880958086027 0.0
-0.04317079696197743 -0.9990677065593039 0.0
-0.05445467331433954 -0.9985162435104541 0.0
-0.06589532478714463 -0.997826541123855 0.0
-0.07750988136563519 -0.9969915838615113 0.0
-0.08924237303341073 -0.996009939134829 0.0
-0.10108475873069199 -0.9948778173988793 0.0
-0.11301418701307475 -0.9935933743407176 0.0
-0.12546638874994429 -0.9920978708242689 0.0
-0.1392587191190457 -0.9902560321196344 0.0
-0.15475767988111783 -0.9879524586324047 0.0
-0.17129868822681035 -0.9852191428366451 0.0
-0.18700257645513682 -0.9823594232250947 0.0
-0.20182317774365757 -0.9794219749043065 0.0
-0.2191684280710362 -0.9756870400578616 0.0
-0.2410581918449484 -0.9705106635913097 0.0
-0.27122985193352056 -0.962514606341182 0.0
-0.3025313292521898 -0.953139441435986 0.0
-0.32145440973302136 -0.946925056413228 0.0
-0.3355106109931246 -0.9420364270616185 0.0
-0.3662113318931881 -0.9305317084296576 0.0
-0.44627070255656925 -0.894898016558125 0.0
-0.5934266764017267 -0.8048880541633104 0.0
-0.7608461575130151 -0.648932295850407 0.0
-0.8955440338694559 -0.4449729018724882 0.0
-0.9392631119669043 -0.3431979115586899 0.0
-0.9962619793541737 0.08638326512296186 0.0
-0.8820027575565721 0.47124424204716037 0.0
-0.7617977049223903 0.647814986531632 0.0
-0.5977336023086932 0.8016947927179475 0.0
-0.447161878544232 0.8944530476088689 0.0
-0.3668991916359445 0.9302607071014505 0.0
-0.33546286386239177 0.9420534310585799 0.0
-0.32114366311666903 0.9470304892874396 0.0
-0.3027695314942511 0.9530638020608861 0.0
-0.27101750432939653 0.9625744191214854 0.0
-0.24136140299196526 0.9704353008551112 0.0
-0.21901506939875431 0.97572147633239 0.0
-0.2017405951533187 0.97943898853741 0.0
-0.1870388817195479 0.9823525114362467 0.0
-0.17129503324025336 0.9852197783171126 0.0
-0.15478310703006637 0.9879484752648384 0.0
-0.13930767338468297 0.9902491464960455 0.0
-0.1254782831763745 0.9920963665144176 0.0
-0.11298771428902447 0.9935963850677706 0.0
-0.10107088647086543 0.9948792267948877 0.0
-0.08924485727538113 0.9960097165439185 0.0
-0.07750850911846881 0.9969916905442253 0.0
-0.06589737800469092 0.9978264055295926 0.0
-0.0544532934757321 0.9985163187598116 0.0
-0.04317421171553492 0.99906755899826 0.0
-0.03198872448231324 0.9994882297986278 0.0
-0.020887558185792625 0.9997818311576957 0.0
-0.0095978400874541 0.9999539396720509 0.0
0.00255473622304676 0.9999967366560907 0.0
0.01586438137278963 0.9998741527830682 0.0
0.027569575978141175 0.9996198869972454 0.0
0.037041119920402855 0.9993137422426666 0.0
0.0469617060649138 0.9988966904357391 0.0
0.05740124083972011 0.9983511894869762 0.0
0.06843374978103137 0.9976556629874394 0.0
0.07996934990940989 0.9967973229674456 0.0
0.0926292974360398 0.9957006644853189 0.0
0.1068510808842024 0.9942750356485259 0.0
0.1221299097080092 0.992514123403145 0.0
0.13811993204908765 0.9904155109703985 0.0
0.15374206050949263 0.9881110154381925 0.0
0.16678792493104272 0.9859927931263984 0.0
0.17708599766744307 0.9841953817358251 0.0
0.18577198140933263 0.9825928815757066 0.0
0.19210547206774567 0.9813742851744327 0.0
0.19708615330824225 0.9803861729819326 0.0
0.20179509281948343 0.9794277617639682 0.0
0.20549973321163886 0.9786571716642888 0.0
0.20783127132903167 0.9781646909686316 0.0
0.20862893194925253 0.9779948715375323 0.0
0.20897248562036544 0.977921520498269 0.0
0.2071869656696185 0.9783013652533745 0.0
0.20502491211625984 0.9787567549762913 0.0
0.20073044646668126 0.9796465116873978 0.0
0.1957201258084526 0.9806597944004453 0.0
0.18733673511247903 0.9822957536696353 0.0
0.1713380623722309 0.9852122960979168 0.0
0.1490357268406503 0.9888318118492543 0.0
0.1244446839099509 0.9922265470377984 0.0
0.10004813224501244 0.9949825984580255 0.0
-0.9976249981788561 0.06887933658679593 0.0
-0.9895721323307819 0.14403817172648875 0.0
-0.9724232179939116 0.23322325164178054 0.0
-0.9473921986053148 0.3200750256139766 0.0
-0.9130683798412809 0.40780649054915546 0.0
-0.8700203619608226 0.4930157905925117 0.0
-0.8201475161414682 0.5721521229244722 0.0
-0.7614630934656189 0.6482082669094634 0.0
-0.6942523079464665 0.7197317089798146 0.0
-0.6205330363216555 0.784180305053262 0.0
-0.5384489701649092 0.8426581196003207 0.0
-0.4491298221776418 0.8934665090705303 0.0
-0.35312060804199724 0.9355778087235985 0.0
-0.24989696260093866 0.9682724348461157 0.0
-0.1393514504870569 0.990242986971962 0.0
-0.03550717079448832 0.999369421596524 0.0
-0.0014114443638020798 0.9999990039119079 0.0
0.0010569690962050776 0.9999994414080088 0.0
-0.00020106517475019207 0.9999999797863975 0.0
-1.1802727311603254e-5 0.9999999999303478 0.0
2.4610151338620038e-5 0.9999999996971703 0.0
-1.2814125852922366e-5 0.9999999999178992 0.0
4.510552240013534e-6 0.9999999999898275 0.0
-1.0855624323699576e-6 0.9999999999994107 0.0
-0.0 1.0 0.0
-0.0 1.0 0.0
-0.0 1.0 0.0
-0.0 1.0 0.0
-0.0 1.0 0.0
-0.0 1.0 0.0
-0.0 1.0 0.0
-0.0 1.0 0.0
-0.0 1.0 0.0
-4.902441401111644e-7 0.9999999999998799 0.0
-3.7507154733912314e-6 0.9999999999929661 0.0
8.946381323911675e-6 0.9999999999599812 0.0
-1.4151678844776114e-6 0.9999999999989986 0.0
-5.4969322500450636e-5 0.9999999984891867 0.0
0.00017321300904463033 0.9999999849986265 0.0
-9.115204867099947e-5 0.999999995845652 0.0
-0.00039038630849384673 0.9999999237992622 0.0
-0.0001118898845005987 0.9999999937403268 0.0
0.0037060619675748146 0.9999931325287654 0.0
-0.0031773240776455354 0.9999949522931131 0.0
-0.021428600039182864 0.999770381187781 0.0
0.036909269328134015 0.9993186207800108 0.0
0.23037460832340542 0.9731020192353101 0.0
0.28071311164954404 0.9597917216500831 0.0
0.2566033874861335 0.9665167880231783 0.0
0.2507505411354774 0.9680517373158656 0.0
0.25637725812462 0.9665767954572996 0.0
0.25610610200090916 0.9666486768820923 0.0
0.25577257461544856 0.9667369808146292 0.0
0.25546853728140567 0.9668173697546497 0.0
0.255749189911258 0.9667431674750718 0.0
0.2556894360624152 0.9667589732120847 0.0
0.2556667138236611 0.9667649825281274 0.0
0.2556823296895331 0.9667608526851575 0.0
0.2556804698286864 0.9667613445665804 0.0
0.2556798616678121 0.9667615054073719 0.0
0.25567928405016244 0.9667616581699942 0.0
0.25568101532528287 0.9667612002983118 0.0
0.2556809696804208 0.9667612123700867 0.0
0.2556806472937007 0.9667612976321892 0.0
0.2556800834844421 0.9667614467433981 0.0
0.2556793934443652 0.966761629238522 0.0
0.25568010727497537 0.9667614404514989 0.0
0.25568100318262443 0.9667612035097017 0.0
0.2556808443094909 0.9667612455271395 0.0
0.25568044242707233 0.9667613518135157 0.0
0.25568037597331356 0.9667613693886122 0.0
0.25568037597331356 0.9667613693886122 0.0
0.25567993823996926 0.9667614851562953 0.0
0.2556802291742331 0.9667614082127046 0.0
0.2556805855056067 0.9667613139733665 0.0
0.2556807244242629 0.9667612772333634 0.0
0.2556800000878664 0.9667614687993458 0.0
0.25567923560114036 0.9667616709832969 0.0
0.25567909546552314 0.9667617080449203 0.0
0.25568046660861954 0.9667613454181949 0.0

VECTORS tangent float
-0.9844937136732715 -0.1754198612980032 0.0
-0.9925726434541261 -0.12165339069047075 0.0
-0.9889256740993269 -0.14841162726414583 0.0
-0.985153202298257 -0.17167751163588574 0.0
-0.9823849103025608 -0.18686863837955742 0.0
-0.980640009761303 -0.19581923106618382 0.0
-0.979552254816751 -0.20118991049110582 0.0
-0.9787875224009892 -0.20487797829960408 0.0
-0.9782819761945396 -0.20727849635914103 0.0
-0.977901765406729 -0.20906491148541131 0.0
-0.9779648192743078 -0.20876975897330172 0.0
-0.9781000673066054 -0.2081351924466744 0.0
-0.9787177878228459 -0.20521084717712848 0.0
-0.9794145266867624 -0.2018593196137967 0.0
-0.9803259852056887 -0.1973853153871781 0.0
-0.9813949702971877 -0.19199977155033793 0.0
-0.9826348172637765 -0.18555003611151585 0.0
-0.984119843100053 -0.17750530813676194 0.0
-0.9859670690620058 -0.16693992549800124 0.0
-0.9881331132089358 -0.1535999693359885 0.0
-0.9904067732047727 -0.138182573395165 0.0
-0.9925113050694842 -0.12215281130317669 0.0
-0.994280969862206 -0.10679584715648245 0.0
-0.9956962495744904 -0.09267674240765128 0.0
-0.9968016774780017 -0.07991505350709432 0.0
-0.9976658159053301 -0.06828557515282421 0.0
-0.9983503286574432 -0.05741621086048212 0.0
-0.998893928528572 -0.047020416297139024 0.0
-0.9993122355171993 -0.03708174679836295 0.0
-0.9996292989484 -0.027226176447126035 0.0
-0.9998767040639442 -0.01570275995561977 0.0
-0.9999966145562205 -0.0026020907167106622 0.0
-0.9999539002036868 0.009601951230613954 0.0
-0.9997814404479176 0.020906251119871103 0.0
-0.9994880958086027 0.031992910728686964 0.0
-0.9990677065593039 0.04317079696197743 0.0
-0.9985162435104541 0.05445467331433954 0.0
-0.997826541123855 0.06589532478714463 0.0
-0.9969915838615113 0.07750988136563519 0.0
-0.996009939134829 0.08924237303341073 0.0
-0.9948778173988793 0.10108475873069199 0.0
-0.9935933743407176 0.11301418701307475 0.0
-0.9920978708242689 0.12546638874994429 0.0
-0.9902560321196344 0.1392587191190457 0.0
-0.9879524586324047 0.15475767988111783 0.0
-0.9852191428366451 0.17129868822681035 0.0
-0.9823594232250947 0.18700257645513682 0.0
-0.9794219749043065 0.20182317774365757 0.0
-0.9756870400578616 0.2191684280710362 0.0
-0.9705106635913097 0.2410581918449484 0.0
-0.962514606341182 0.27122985193352056 0.0
-0.953139441435986 0.3025313292521898 0.0
-0.946925056413228 0.32145440973302136 0.0
-0.9420364270616185 0.3355106109931246 0.0
-0.9305317084296576 0.3662113318931881 0.0
-0.894898016558125 0.44627070255656925 0.0
-0.8048880541633104 0.5934266764017267 0.0
-0.648932295850407 0.7608461575130151 0.0
-0.4449729018724882 0.8955440338694559 0.0
-0.3431979115586899 0.9392631119669043 0.0
0.08638326512296186 0.9962619793541737 0.0
0.47124424204716037 0.8820027575565721 0.0
0.647814986531632 0.7617977049223903 0.0
0.8016947927179475 0.5977336023086932 0.0
0.8944530476088689 0.447161878544232 0.0
0.9302607071014505 0.3668991916359445 0.0
0.9420534310585799 0.33546286386239177 0.0
0.9470304892874396 0.32114366311666903 0.0
0.9530638020608861 0.3027695314942511 0.0
0.9625744191214854 0.27101750432939653 0.0
0.9704353008551112 0.24136140299196526 0.0
0.97572147633239 0.21901506939875431 0.0
0.97943898853741 0.2017405951533187 0.0
0.9823525114362467 0.1870388817195479 0.0
0.9852197783171126 0.17129503324025336 0.0
0.9879484752648384 0.15478310703006637 0.0
0.9902491464960455 0.13930767338468297 0.0
0.9920963665144176 0.1254782831763745 0.0
0.9935963850677706 0.11298771428902447 0.0
0.9948792267948877 0.10107088647086543 0.0
0.9960097165439185 0.08924485727538113 0.0
0.9969916905442253 0.07750850911846881 0.0
0.9978264055295926 0.06589737800469092 0.0
0.9985163187598116 0.0544532934757321 0.0
0.99906755899826 0.04317421171553492 0.0
0.9994882297986278 0.03198872448231324 0.0
0.9997818311576957 0.020887558185792625 0.0
0.9999539396720509 0.0095978400874541 0.0
0.9999967366560907 -0.00255473622304676 0.0
0.9998741527830682 -0.01586438137278963 0.0
0.9996198869972454 -0.027569575978141175 0.0
0.9993137422426666 -0.037041119920402855 0.0
0.9988966904357391 -0.0469617060649138 0.0
0.9983511894869762 -0.05740124083972011 0.0
0.9976556629874394 -0.06843374978103137 0.0
0.9967973229674456 -0.07996934990940989 0.0
0.9957006644853189 -0.0926292974360398 0.0
0.9942750356485259 -0.1068510808842024 0.0
0.992514123403145 -0.1221299097080092 0.0
0.9904155109703985 -0.13811993204908765 0.0
0.9881110154381925 -0.15374206050949263 0.0
0.9859927931263984 -0.16678792493104272 0.0
0.9841953817358251 -0.17708599766744307 0.0
0.9825928815757066 -0.18577198140933263 0.0
0.9813742851744327 -0.19210547206774567 0.0
0.9803861729819326 -0.19708615330824225 0.0
0.9794277617639682 -0.20179509281948343 0.0
0.9786571716642888 -0.20549973321163886 0.0
0.9781646909686316 -0.20783127132903167 0.0
0.9779948715375323 -0.20862893194925253 0.0
0.977921520498269 -0.20897248562036544 0.0
0.9783013652533745 -0.2071869656696185 0.0
0.9787567549762913 -0.20502491211625984 0.0
0.9796465116873978 -0.20073044646668126 0.0
0.9806597944004453 -0.1957201258084526 0.0
0.9822957536696353 -0.18733673511247903 0.0
0.9852122960979168 -0.1713380623722309 0.0
0.9888318118492543 -0.1490357268406503 0.0
0.9922265470377984 -0.1244446839099509 0.0
0.9949825984580255 -0.10004813224501244 0.0
0.06887933658679593 0.9976249981788561 0.0
0.14403817172648875 0.9895721323307819 0.0
0.23322325164178054 0.9724232179939116 0.0
0.3200750256139766 0.9473921986053148 0.0
0.40780649054915546 0.9130683798412809 0.0
0.4930157905925117 0.8700203619608226 0.0
0.5721521229244722 0.8201475161414682 0.0
0.6482082669094634 0.7614630934656189 0.0
0.7197317089798146 0.6942523079464665 0.0
0.784180305053262 0.6205330363216555 0.0
0.8426581196003207 0.5384489701649092 0.0
0.8934665090705303 0.4491298221776418 0.0
0.9355778087235985 0.35312060804199724 0.0
0.9682724348461157 0.24989696260093866 0.0
0.990242986971962 0.1393514504870569 0.0
0.999369421596524 0.03550717079448832 0.0
0.9999990039119079 0.0014114443638020798 0.0
0.9999994414080088 -0.0010569690962050776 0.0
0.9999999797863975 0.00020106517475019207 0.0
0.9999999999303478 1.1802727311603254e-5 0.0
0.9999999996971703 -2.4610151338620038e-5 0.0
0.9999999999178992 1.2814125852922366e-5 0.0
0.9999999999898275 -4.510552240013534e-6 0.0
0.9999999999994107 1.0855624323699576e-6 0.0
1.0 0.0 0.0
1.0 0.0 0.0
1.0 0.0 0.0
1.0 0.0 0.0
1.0 0.0 0.0
1.0 0.0 0.0
1.0 0.0 0.0
1.0 0.0 0.0
1.0 0.0 0.0
0.9999999999998799 4.902441401111644e-7 0.0
0.9999999999929661 3.7507154733912314e-6 0.0
0.9999999999599812 -8.946381323911675e-6 0.0
0.9999999999989986 1.4151678844776114e-6 0.0
0.9999999984891867 5.4969322500450636e-5 0.0
0.9999999849986265 -0.00017321300904463033 0.0
0.999999995845652 9.115204867099947e-5 0.0
0.9999999237992622 0.00039038630849384673 0.0
0.9999999937403268 0.0001118898845005987 0.0
0.9999931325287654 -0.0037060619675748146 0.0
0.9999949522931131 0.0031773240776455354 0.0
0.999770381187781 0.021428600039182864 0.0
0.9993186207800108 -0.036909269328134015 0.0
0.9731020192353101 -0.23037460832340542 0.0
0.9597917216500831 -0.28071311164954404 0.0
0.9665167880231783 -0.2566033874861335 0.0
0.9680517373158656 -0.2507505411354774 0.0
0.9665767954572996 -0.25637725812462 0.0
0.9666486768820923 -0.25610610200090916 0.0
0.9667369808146292 -0.25577257461544856 0.0
0.9668173697546497 -0.25546853728140567 0.0
0.9667431674750718 -0.255749189911258 0.0
0.9667589732120847 -0.2556894360624152 0.0
0.9667649825281274 -0.2556667138236611 0.0
0.9667608526851575 -0.2556823296895331 0.0
0.9667613445665804 -0.2556804698286864 0.0
0.9667615054073719 -0.2556798616678121 0.0
0.9667616581699942 -0.25567928405016244 0.0
0.9667612002983118 -0.25568101532528287 0.0
0.9667612123700867 -0.2556809696804208 0.0
0.9667612976321892 -0.2556806472937007 0.0
0.9667614467433981 -0.2556800834844421 0.0
0.966761629238522 -0.2556793934443652 0.0
0.9667614404514989 -0.25568010727497537 0.0
0.9667612035097017 -0.25568100318262443 0.0
0.9667612455271395 -0.2556808443094909 0.0
0.9667613518135157 -0.25568044242707233 0.0
0.9667613693886122 -0.25568037597331356 0.0
0.9667613693886122 -0.25568037597331356 0.0
0.9667614851562953 -0.25567993823996926 0.0
0.9667614082127046 -0.2556802291742331 0.0
0.9667613139733665 -0.2556805855056067 0.0
0.9667612772333634 -0.2556807244242629 0.0
0.9667614687993458 -0.2556800000878664 0.0
0.9667616709832969 -0.25567923560114036 0.0
0.9667617080449203 -0.25567909546552314 0.0
0.9667613454181949 -0.25568046660861954 0.0