# vtk DataFile Version 4.0
 
ASCII
DATASET UNSTRUCTURED_GRID
POINTS 990 float
0.5082162837166666 0.159999996 0.0
0.52464885115 0.159999996 0.0
0.5410814185833333 0.159999996 0.0
0.5575139860166667 0.16000000002798495 0.0
0.57394655345 0.16000003487291237 0.0
0.5903791208833333 0.15999999218384764 0.0
0.6068116883166668 0.15999993030526127 0.0
0.62324425575 0.1600003935762322 0.0
0.6396768231833334 0.15999942205253517 0.0
0.6561093906166666 0.15999874781638446 0.0
0.67254195805 0.16000270427239488 0.0
0.6889745254833333 0.16000683111635083 0.0
0.7054070929166667 0.1599773001696792 0.0
0.7218396603499999 0.15997295583182253 0.0
0.7382722277833333 0.1601751656540193 0.0
0.7547047952166667 0.16004780574585536 0.0
0.77113736265 0.15779919836571463 0.0
0.7875699300833334 0.1534510140905233 0.0
0.8040024975166666 0.14886660804022006 0.0
0.82043506495 0.14455701182060743 0.0
0.8368676323833334 0.14024947321414868 0.0
0.8533001998166667 0.13589332455402797 0.0
0.8697327672499998 0.13154267619498672 0.0
0.8861653346833334 0.12719782585979833 0.0
0.9025979021166668 0.12285318818085579 0.0
0.9190304695499999 0.11850654198840559 0.0
0.9354630369833334 0.11416064578590553 0.0
0.9518956044166667 0.10981481420348937 0.0
0.9683281718500002 0.10546885753542866 0.0
0.9847607392833333 0.10112292330963868 0.0
1.001452877925 0.09670835111501494 0.0
1.018404587775 0.09222511918120886 0.0
1.035356297625 0.08774187143536366 0.0
1.0523080074750002 0.08325862714183732 0.0
1.069259717325 0.07877539116126694 0.0
1.0862114271749999 0.07429216694241769 0.0
1.1031631370250001 0.06980894250040154 0.0
1.120114846875 0.06532570295824958 0.0
1.137066556725 0.0608424565023502 0.0
1.154018266575 0.056359215306615675 0.0
1.170969976425 0.05187597850410605 0.0
1.1879216862750002 0.047392742324965445 0.0
1.204873396125 0.042909510251978554 0.0
1.221825105975 0.038426279556039306 0.0
1.238776815825 0.03394304278843004 0.0
1.255728525675 0.029459801375131073 0.0
1.2726802355250002 0.024976565453338567 0.0
1.289631945375 0.020493343497435992 0.0
1.3065836552249999 0.01601013002733094 0.0
1.3235353650750001 0.011526905009774158 0.0
1.348658541065625 0.00928528607 0.0
1.3819531831968752 0.00928528607 0.0
1.4152478253281249 0.00928528607 0.0
1.448542467459375 0.00928528607 0.0
1.481837109590625 0.00928528607 0.0
1.5151317517218752 0.00928528607 0.0
1.5484263938531249 0.00928528607 0.0
1.581721035984375 0.00928528607 0.0
1.615015678115625 0.00928528607 0.0
1.6483103202468754 0.00928528607 0.0
1.6816049623781248 0.00928528607 0.0
1.714899604509375 0.00928528607 0.0
1.7481942466406248 0.00928528607 0.0
1.7814888887718752 0.00928528607 0.0
1.814783530903125 0.00928528607 0.0
1.848078173034375 0.00928528607 0.0
1.881372815165625 0.00928528607 0.0
1.914667457296875 0.00928528607 0.0
1.9479620994281248 0.00928528607 0.0
1.9812567415593751 0.00928528607 0.0
2.014551383690625 0.00928528607 0.0
2.047846025821875 0.00928528607 0.0
2.081140667953125 0.00928528607 0.0
2.114435310084375 0.00928528607 0.0
2.147729952215625 0.00928528607 0.0
2.181024594346875 0.00928528607 0.0
2.214319236478125 0.00928528607 0.0
2.247613878609375 0.00928528607 0.0
2.280908520740625 0.00928528607 0.0
2.314203162871875 0.00928528607 0.0
2.3474978050031248 0.00928528607 0.0
2.380792447134375 0.00928528607 0.0
2.414087089265625 0.00928528607 0.0
2.447381731396875 0.00928528607 0.0
2.4806763735281248 0.00928528607 0.0
2.513971015659375 0.00928528607 0.0
2.547265657790625 0.00928528607 0.0
2.580560299921875 0.00928528607 0.0
2.6138549420531247 0.00928528607 0.0
2.647149584184375 0.00928528607 0.0
0.5082162837166666 0.22011145374935526 0.0
0.52464885115 0.22023347233882454 0.0
0.5410814185833333 0.22035243623345535 0.0
0.5575139860166667 0.22046567998634653 0.0
0.57394655345 0.2205701810692814 0.0
0.5903791208833333 0.22066238868604382 0.0
0.6068116883166668 0.2207380154138671 0.0
0.62324425575 0.22079175166918047 0.0
0.6396768231833334 0.22081685301512302 0.0
0.6561093906166666 0.22080473256768088 0.0
0.67254195805 0.2207441318653964 0.0
0.6889745254833333 0.22061982215664577 0.0
0.7054070929166667 0.22041129621659086 0.0
0.7218396603499999 0.22009277042737324 0.0
0.7382722277833333 0.21962738340685986 0.0
0.7547047952166667 0.21894852523767697 0.0
0.77113736265 0.21796940018891103 0.0
0.7875699300833334 0.21667901304852427 0.0
0.8040024975166666 0.21516162154398147 0.0
0.82043506495 0.21350177127860367 0.0
0.8368676323833334 0.2117502533851288 0.0
0.8533001998166667 0.2099401914984324 0.0
0.8697327672499998 0.208097487959515 0.0
0.8861653346833334 0.20624185578679521 0.0
0.9025979021166668 0.20438810084069714 0.0
0.9190304695499999 0.2025476407018104 0.0
0.9354630369833334 0.20072959030049956 0.0
0.9518956044166667 0.19894131710864638 0.0
0.9683281718500002 0.19718887145175296 0.0
0.9847607392833333 0.1954773146897862 0.0
1.001452877925 0.19378538143521817 0.0
1.018404587775 0.1921184331370966 0.0
1.035356297625 0.1905070325756375 0.0
1.0523080074750002 0.1889542096598007 0.0
1.069259717325 0.1874626006909702 0.0
1.0862114271749999 0.18603449356780088 0.0
1.1031631370250001 0.18467185679423515 0.0
1.120114846875 0.18337635602842003 0.0
1.137066556725 0.18214936071390275 0.0
1.154018266575 0.18099194193263463 0.0
1.170969976425 0.17990486259342903 0.0
1.1879216862750002 0.17888856091415753 0.0
1.204873396125 0.17794312736222778 0.0
1.221825105975 0.17706827463719393 0.0
1.238776815825 0.1762633002088716 0.0
1.255728525675 0.17552704059510982 0.0
1.2726802355250002 0.17485781598081837 0.0
1.289631945375 0.1742533634164322 0.0
1.3065836552249999 0.17371075643201778 0.0
1.3235353650750001 0.17322630836759628 0.0
1.348658541065625 0.17263924983817105 0.0
1.3819531831968752 0.17201366454915296 0.0
1.4152478253281249 0.1715471983402125 0.0
1.448542467459375 0.1711968653725794 0.0
1.481837109590625 0.17093205837788916 0.0
1.5151317517218752 0.17073073290594182 0.0
1.5484263938531249 0.17057685339127476 0.0
1.581721035984375 0.17045865398553195 0.0
1.615015678115625 0.17036743602350005 0.0
1.6483103202468754 0.17029672527857898 0.0
1.6816049623781248 0.17024167431807616 0.0
1.714899604509375 0.17019863422519313 0.0
1.7481942466406248 0.1701648448522292 0.0
1.7814888887718752 0.1701382089713113 0.0
1.814783530903125 0.17011712640861626 0.0
1.848078173034375 0.17010037144946955 0.0
1.881372815165625 0.17008700170735333 0.0
1.914667457296875 0.17007629003411895 0.0
1.9479620994281248 0.17006767341031215 0.0
1.9812567415593751 0.1700607144197272 0.0
2.014551383690625 0.17005507209761006 0.0
2.047846025821875 0.17005047979290738 0.0
2.081140667953125 0.1700467283006848 0.0
2.114435310084375 0.1700436529694767 0.0
2.147729952215625 0.17004112381727574 0.0
2.181024594346875 0.17003903793239403 0.0
2.214319236478125 0.17003731361511185 0.0
2.247613878609375 0.17003588584973228 0.0
2.280908520740625 0.1700347027965466 0.0
2.314203162871875 0.1700337230681116 0.0
2.3474978050031248 0.17003291361060452 0.0
2.380792447134375 0.17003224805359 0.0
2.414087089265625 0.17003170542380497 0.0
2.447381731396875 0.17003126914312594 0.0
2.4806763735281248 0.17003092624965027 0.0
2.513971015659375 0.1700306667952312 0.0
2.547265657790625 0.17003048338393295 0.0
2.580560299921875 0.17003037082452815 0.0
2.6138549420531247 0.17003032587697003 0.0
2.647149584184375 0.17003036492033607 0.0
0.5082162837166666 0.2802259734462592 0.0
0.52464885115 0.2804771767323858 0.0
0.5410814185833333 0.28072537329757297 0.0
0.5575139860166667 0.28096743888342424 0.0
0.57394655345 0.2811999776071515 0.0
0.5903791208833333 0.2814192191824694 0.0
0.6068116883166668 0.2816209102452205 0.0
0.62324425575 0.2818001999333822 0.0
0.6396768231833334 0.28195152293752795 0.0
0.6561093906166666 0.28206848903772685 0.0
0.67254195805 0.28214378630907333 0.0
0.6889745254833333 0.2821691297340475 0.0
0.7054070929166667 0.2821353155388805 0.0
0.7218396603499999 0.2820324483466271 0.0
0.7382722277833333 0.2818503348975061 0.0
0.7547047952166667 0.2815793605066865 0.0
0.77113736265 0.28121299721960025 0.0
0.7875699300833334 0.28075190496061686 0.0
0.8040024975166666 0.28020472661591733 0.0
0.82043506495 0.2795843091735145 0.0
0.8368676323833334 0.27890422690478067 0.0
0.8533001998166667 0.2781773007535533 0.0
0.8697327672499998 0.27741512151358017 0.0
0.8861653346833334 0.27662787446013304 0.0
0.9025979021166668 0.2758243427367886 0.0
0.9190304695499999 0.2750120202774786 0.0
0.9354630369833334 0.2741972676832318 0.0
0.9518956044166667 0.27338546990732415 0.0
0.9683281718500002 0.27258118300196366 0.0
0.9847607392833333 0.2717882644412739 0.0
1.001452877925 0.27099795601839505 0.0
1.018404587775 0.27021367390059525 0.0
1.035356297625 0.2694505431771803 0.0
1.0523080074750002 0.26871074368105535 0.0
1.069259717325 0.2679961143188705 0.0
1.0862114271749999 0.2673081982049479 0.0
1.1031631370250001 0.2666482774316035 0.0
1.120114846875 0.26601739930406265 0.0
1.137066556725 0.2654163956003086 0.0
1.154018266575 0.2648458961823832 0.0
1.170969976425 0.2643063381172994 0.0
1.1879216862750002 0.263797971349652 0.0
1.204873396125 0.26332086189495074 0.0
1.221825105975 0.262874893512479 0.0
1.238776815825 0.26245976888996847 0.0
1.255728525675 0.2620750115384017 0.0
1.2726802355250002 0.2617199698777768 0.0
1.289631945375 0.26139382543832984 0.0
1.3065836552249999 0.2610956077590354 0.0
1.3235353650750001 0.26082421950963647 0.0
1.348658541065625 0.260478060096073 0.0
1.3819531831968752 0.2600861484717223 0.0
1.4152478253281249 0.25977157751820606 0.0
1.448542467459375 0.2595208715627924 0.0
1.481837109590625 0.25932184737091935 0.0
1.5151317517218752 0.25916414209865074 0.0
1.5484263938531249 0.2590392307463423 0.0
1.581721035984375 0.2589402370022422 0.0
1.615015678115625 0.2588616808872123 0.0
1.6483103202468754 0.25879922765061053 0.0
1.6816049623781248 0.2587494638924585 0.0
1.714899604509375 0.25870970859932874 0.0
1.7481942466406248 0.25867785853428105 0.0
1.7814888887718752 0.2586522641092611 0.0
1.814783530903125 0.258631630917607 0.0
[...]
POINT_DATA 990

VECTORS normal float
-0.0 1.0 0.0
-0.0 1.0 0.0
-0.0 1.0 0.0
-4.902441401111644e-7 0.9999999999998799 0.0
-3.7507154733912314e-6 0.9999999999929661 0.0
8.946381323911675e-6 0.9999999999599812 0.0
-1.4151678844776114e-6 0.9999999999989986 0.0
-5.4969322500450636e-5 0.9999999984891867 0.0
0.00017321300904463033 0.9999999849986265 0.0
-9.115204867099947e-5 0.999999995845652 0.0
-0.00039038630849384673 0.9999999237992622 0.0
-0.0001118898845005987 0.9999999937403268 0.0
0.0037060619675748146 0.9999931325287654 0.0
-0.0031773240776455354 0.9999949522931131 0.0
-0.021428600039182864 0.999770381187781 0.0
0.036909269328134015 0.9993186207800108 0.0
0.23037460832340542 0.9731020192353101 0.0
0.28071311164954404 0.9597917216500831 0.0
0.2566033874861335 0.9665167880231783 0.0
0.2507505411354774 0.9680517373158656 0.0
0.25637725812462 0.9665767954572996 0.0
0.25610610200090916 0.9666486768820923 0.0
0.25577257461544856 0.9667369808146292 0.0
0.25546853728140567 0.9668173697546497 0.0
0.255749189911258 0.9667431674750718 0.0
0.2556894360624152 0.9667589732120847 0.0
0.2556667138236611 0.9667649825281274 0.0
0.2556823296895331 0.9667608526851575 0.0
0.2556804698286864 0.9667613445665804 0.0
0.2556798616678121 0.9667615054073719 0.0
0.25567928405016244 0.9667616581699942 0.0
0.25568101532528287 0.9667612002983118 0.0
0.2556809696804208 0.9667612123700867 0.0
0.2556806472937007 0.9667612976321892 0.0
0.2556800834844421 0.9667614467433981 0.0
0.2556793934443652 0.966761629238522 0.0
0.25568010727497537 0.9667614404514989 0.0
0.25568100318262443 0.9667612035097017 0.0
0.2556808443094909 0.9667612455271395 0.0
0.25568044242707233 0.9667613518135157 0.0
0.25568037597331356 0.9667613693886122 0.0
0.25568037597331356 0.9667613693886122 0.0
0.25567993823996926 0.9667614851562953 0.0
0.2556802291742331 0.9667614082127046 0.0
0.2556805855056067 0.9667613139733665 0.0
0.2556807244242629 0.9667612772333634 0.0
0.2556800000878664 0.9667614687993458 0.0
0.25567923560114036 0.9667616709832969 0.0
0.25567909546552314 0.9667617080449203 0.0
0.25568046660861954 0.9667613454181949 0.0
-0.0 1.0 0.0
-0.0 1.0 0.0
-0.0 1.0 0.0
-0.0 1.0 0.0
-0.0 1.0 0.0
-0.0 1.0 0.0
-0.0 1.0 0.0
-0.0 1.0 0.0
-0.0 1.0 0.0
-0.0 1.0 0.0
-0.0 1.0 0.0
-0.0 1.0 0.0
-0.0 1.0 0.0
-0.0 1.0 0.0
-0.0 1.0 0.0
-0.0 1.0 0.0
-0.0 1.0 0.0
-0.0 1.0 0.0
-0.0 1.0 0.0
-0.0 1.0 0.0
-0.0 1.0 0.0
-0.0 1.0 0.0
-0.0 1.0 0.0
-0.0 1.0 0.0
-0.0 1.0 0.0
-0.0 1.0 0.0
-0.0 1.0 0.0
-0.0 1.0 0.0
-0.0 1.0 0.0
-0.0 1.0 0.0
-0.0 1.0 0.0
-0.0 1.0 0.0
-0.0 1.0 0.0
-0.0 1.0 0.0
-0.0 1.0 0.0
-0.0 1.0 0.0
-0.0 1.0 0.0
-0.0 1.0 0.0
-0.0 1.0 0.0
-0.0 1.0 0.0
-0.007479735643307342 0.9999720263860916 0.0
-0.00737067963172894 0.9999728361719464 0.0
-0.007107979855901663 0.9999747379920995 0.0
-0.006674535432595512 0.9999777250402927 0.0
-0.006043982806802397 0.9999817349691098 0.0
-0.0051783827328930375 0.9999865920862496 0.0
-0.004026008433451074 0.9999918955952062 0.0
-0.0025141651769968612 0.9999968394817369 0.0
-0.0005408997246859673 0.9999998537137332 0.0
0.0020160696246488744 0.9999979677295692 0.0
0.005359532076444141 0.9999856376048214 0.0
0.009769600463255083 0.9999522763146189 0.0
0.015607625340996903 0.9998781935972076 0.0
0.023151888956477486 0.9997319590959104 0.0
0.033465182697928884 0.9994398839084793 0.0
0.04908034732014931 0.9987948335403691 0.0
0.06985819103398844 0.997556932282794 0.0
0.08669547609020167 0.9962348590696339 0.0
0.09719549117095068 0.9952653096014337 0.0
0.10379799840249296 0.9945983991177726 0.0
0.10817614195755376 0.9941317429350999 0.0
0.11080061605909229 0.9938426552935459 0.0
0.1120768813153686 0.9936995384293086 0.0
0.11234486286880735 0.9936692768657935 0.0
0.11185268776903101 0.9937247990459146 0.0
0.11075686712562893 0.9938475317595331 0.0
0.10917502624489732 0.9940225418190606 0.0
0.10719707190839972 0.9942377923687399 0.0
0.1048892003546464 0.9944839142233336 0.0
0.10230220240852353 0.9947533661075824 0.0
0.0994305552337198 0.99504450387202 0.0
0.09629490215970528 0.9953528478976955 0.0
0.09296770979641358 0.9956691242251163 0.0
0.08947306917045252 0.9959892418561656 0.0
0.08583201097017981 0.9963096235070776 0.0
0.08206355267536528 0.9966270984286436 0.0
0.07818552649045907 0.9969388263315907 0.0
0.07421519495876237 0.9972422498256043 0.0
0.0701697855815946 0.9975350626376163 0.0
0.06606697573587557 0.9978151906626372 0.0
0.06192529870528248 0.9980807870008628 0.0
0.05776451717516235 0.9983302362222233 0.0
0.05360600996878584 0.9985621641616642 0.0
0.0494731938647402 0.9987754517852457 0.0
0.04539196661777384 0.9989692534640748 0.0
0.04139122351013959 0.9991430160974621 0.0
0.03750346352931472 0.9992964976538772 0.0
0.03376551201423171 0.9994297825252241 0.0
0.03021938057983023 0.9995432902267771 0.0
0.026913307125293655 0.9996377713449904 0.0
0.021551769828100916 0.9997677336348062 0.0
0.01601990354502828 0.9998716731113086 0.0
0.011997673753597119 0.999928025322074 0.0
0.009045497634728228 0.9999590886494008 0.0
0.0068608541807629875 0.999976464062985 0.0
0.005232478462498669 0.9999863104908683 0.0
0.004010917787310357 0.9999919562369006 0.0
0.0030892410180091323 0.9999952282835819 0.0
0.002390175316537123 0.9999971435268984 0.0
0.001857389660816931 0.9999982750503362 0.0
0.0014495016762159504 0.9999989494718935 0.0
0.0011359026158240053 0.9999993548624156 0.0
0.0008938146394412027 0.9999996005476153 0.0
0.0007061948718617987 0.9999997506443705 0.0
0.0005602286095435376 0.9999998430719402 0.0
0.0004462370480527287 0.9999999004362435 0.0
0.0003568796183186475 0.999999936318467 0.0
0.00028656761369671025 0.9999999589395007 0.0
0.00023103059170446167 0.9999999733124324 0.0
0.00018699405024373862 0.9999999825166125 0.0
0.00015193868321382715 0.9999999884573183 0.0
0.00012391979513034403 0.9999999923219421 0.0
0.00010143130990800547 0.9999999948558448 0.0
8.330298952942655e-5 0.999999996530306 0.0
6.862248745894942e-5 0.9999999976454772 0.0
5.667604371496334e-5 0.9999999983939132 0.0
4.690322126164517e-5 0.9999999989000441 0.0
3.8862252508815765e-5 0.9999999992448627 0.0
3.220342708392902e-5 0.9999999994814696 0.0
2.664859065040468e-5 0.9999999996449263 0.0
2.1975299262061694e-5 0.9999999997585433 0.0
1.8004527627452304e-5 0.9999999998379187 0.0
1.459109438417973e-5 0.99999999989355 0.0
1.1616166066645255e-5 0.9999999999325325 0.0
8.981350752077857e-6 0.9999999999596677 0.0
6.604004875363598e-6 0.9999999999781936 0.0
4.4134613921386516e-6 0.9999999999902607 0.0
2.3479511109468843e-6 0.9999999999972436 0.0
3.520363490538348e-7 0.999999999999938 0.0
-2.697360615576663e-6 0.9999999999963621 0.0
-0.01533075602746763 0.9998824770539919 0.0
-0.015239505093285725 0.9998838719993994 0.0
-0.01496493539841826 0.9998880190843977 0.0
-0.014493553920334988 0.9998949629309862 0.0
-0.013805785618471842 0.9999046956002642 0.0
-0.012875619402234528 0.9999171057767783 0.0
-0.011670242130358081 0.9999319004055321 0.0
-0.010149703279257906 0.9999484904350538 0.0
-0.008266942550850755 0.9999658282465761 0.0
-0.0059685572909118296 0.999982188003299 0.0
-0.0031957153123572633 0.9999948936887841 0.0
0.0001111953788663402 0.9999999938177938 0.0
0.004004282196866594 0.9999919828299064 0.0
0.008515294212301463 0.9999637442249985 0.0
0.013648067404581807 0.9999068607906039 0.0
0.01932721531479374 0.9998132119291961 0.0
0.025251022026766073 0.9996811421081243 0.0
0.030845559927988826 0.999524162505704 0.0
0.035713775003819094 0.9993620596535456 0.0
0.03974271657268944 0.9992099461471663 0.0
0.04295865666885334 0.9990768508063869 0.0
0.04542853773888011 0.9989675910453287 0.0
0.04723620085425075 0.9988837476547794 0.0
0.048469443914778775 0.998824665798053 0.0
0.04921128956208772 0.9987883904910171 0.0
0.04953550869355385 0.9987723631431092 0.0
0.04950597992211066 0.9987738272261403 0.0
0.04917719247102896 0.9987900699049164 0.0
0.048595132624193724 0.998818558640776 0.0
0.04779843362116342 0.9988570016490664 0.0
0.046803340414074676 0.9989041231900507 0.0
0.04562906686039871 0.998958451717312 0.0
0.044315620014407156 0.9990175803371723 0.0
0.04288448334380149 0.9990800373785553 0.0
0.041354164936807755 0.9991445506243726 0.0
0.03974086471191318 0.9992100198016177 0.0
0.038059025755607157 0.9992754928239429 0.0
0.03632178592789624 0.9993401462300051 0.0
0.03454134540640332 0.9994032696852235 0.0
0.0327292621440942 0.9994642541879639 0.0
0.030896683110940616 0.9995225835231248 0.0
0.029054517083769077 0.9995778284040864 0.0
0.027213551763726664 0.9996296427179433 0.0
0.025384513575368885 0.9996777613163863 0.0
0.02357806306631543 0.9997219988286948 0.0
0.021804713363790945 0.9997622489747864 0.0
0.02007465088377527 0.9997984838915762 0.0
0.018397426762425922 0.9998307530219909 0.0
0.016781473018750985 0.9998591811666886 0.0
0.01523337806456353 0.9998839653643528 0.0
0.013035736254616823 0.9999150311803 0.0
0.010504599935365684 0.999944825167968 0.0
0.008390715758041917 0.9999647973249198 0.0
0.006668678390344055 0.9999777641170459 0.0
0.005286427946060304 0.9999860267421596 0.0
0.004186773840059795 0.9999912354239971 0.0
0.0033165618183336703 0.9999945001937288 0.0
0.0026299378403281054 0.9999965417074982 0.0
0.0020888927415902954 0.9999978182611771 0.0
0.0016626491568938256 0.9999986177979352 0.0
0.0013266426494965308 0.999999120009253 0.0
0.0010614451145437502 0.9999994366669757 0.0
0.0008517786302281277 0.9999996372365167 0.0
0.0006856709745353979 0.9999997649276297 0.0
0.000553758929899524 0.9999998466755122 0.0
0.0004487262891492288 0.9999998993223539 0.0
0.00036485691386482305 0.9999999334397138 0.0
0.0002976825478832312 0.9999999556925493 0.0
0.00024370696140236844 0.9999999703034581 0.0
0.00020019072544177926 0.9999999799618364 0.0
0.00016498370623755095 0.9999999863901882 0.0
0.0001363948906969492 0.9999999906982169 0.0
0.00011309129648187307 0.9999999936051794 0.0
9.40194790047533e-5 0.9999999955801687 0.0
7.834456177651892e-5 0.9999999969310648 0.0
6.54028391896995e-5 0.9999999978612344 0.0
5.466488474452614e-5 0.9999999985058752 0.0
4.570678953780504e-5 0.9999999989554447 0.0
3.818769446655817e-5 0.9999999992708501 0.0
3.1832197552363095e-5 0.9999999994933557 0.0
2.641654046627403e-5 0.9999999996510831 0.0
2.175772688348373e-5 0.9999999997633007 0.0
1.7704916192282623e-5 0.999999999843268 0.0
1.4132582594724702e-5 0.999999999900135 0.0
1.0935041790198566e-5 0.9999999999402124 0.0
8.0220336742598e-6 0.9999999999678236 0.0
5.3151152288365745e-6 0.999999999985875 0.0
2.744668179796057e-6 0.9999999999962333 0.0
2.47363973264722e-7 0.9999999999999694 0.0
-3.686363098767195e-6 0.9999999999932055 0.0
-0.024425209241797217 0.9997016600733912 0.0
-0.024442148120201807 0.9997012460706799 0.0
-0.02431668340103897 0.9997043057366383 0.0
-0.024042250131060726 0.9997109433274379 0.0
-0.023609592817158326 0.9997212547140367 0.0
-0.023007127546032038 0.9997353010082621 0.0
-0.022221504548728614 0.9997530718810473 0.0
-0.021238427821866603 0.9997744391529798 0.0
-0.02004380636324902 0.9997991027333804 0.0
-0.01862531737101708 0.9998265337311413 0.0
-0.016974458086542854 0.9998559235073162 0.0
-0.015089202451235075 0.9998861515039529 0.0
-0.012977213034205938 0.9999157924254747 0.0
-0.010659420660763141 0.9999431867617163 0.0
-0.008173600047533926 0.9999665955732038 0.0
-0.00557790926668013 0.9999844433431014 0.0
-0.0029517841982115004 0.999995643475534 0.0
-0.0003861324389236398 0.9999999254508671 0.0
0.00203988635948273 0.9999979194296559 0.0
0.004271856743664816 0.9999908755783533 0.0
0.006279466975757597 0.9999802839528891 0.0
0.008051024770591636 0.9999675899748669 0.0
0.009588092132847845 0.999954033188152 0.0
0.010900904729793213 0.9999405833728685 0.0
0.012004728217514032 0.9999279406539372 0.0
0.012917174494615203 0.9999165698212404 0.0
0.013656381544438623 0.9999067472735209 0.0
0.014239859381808445 0.9998986080622305 0.0
0.014683823938433569 0.9998921868454343 0.0
0.015002879349054322 0.9998874504719208 0.0
0.015213128240948918 0.9998842736682704 0.0
0.015319748003026067 0.9998826457745548 0.0
0.015330142990387222 0.9998824864532304 0.0
0.015253665431654134 0.9998836560774954 0.0
0.01509853420901957 0.9998860106355819 0.0
0.014872092563675277 0.999889404315686 0.0
0.014581042905603801 0.9998936909430847 0.0
0.014231649678375412 0.9998987249453978 0.0
0.013829906090847928 0.9999043622754717 0.0
0.013381663755099533 0.9999104615290038 0.0
0.012892726281574798 0.9999168853504916 0.0
0.012368909059399658 0.9999235021183771 0.0
0.011816068042801942 0.9999301878311346 0.0
0.011240100626437327 0.9999368280736077 0.0
0.010646921914760656 0.9999433199205546 0.0
0.010042420200062336 0.999949573626853 0.0
0.00943239660237809 0.9999555139576637 0.0
0.008822496100659778 0.9999610810239336 0.0
0.008218141311289404 0.9999662305065046 0.0
0.00762448739106508 0.9999709331735716 0.0
0.006765245193641734 0.999977115466884 0.0
0.005717505841714886 0.9999836549298944 0.0
0.004782097866829615 0.9999885657046246 0.0
0.003968599773421163 0.9999921250769123 0.0
0.0032750142621293713 0.9999946371264112 0.0
0.002692290388881163 0.9999963757796634 0.0
0.0022079371461746684 0.9999975625038086 0.0
0.0018084443190399847 0.9999983647632353 0.0
0.0014807208888906027 0.9999989037322237 0.0
0.0012128449558782787 0.9999992645032858 0.0
0.0009943744542288634 0.9999995056096004 0.0
0.0008163985635889739 0.9999996667466374 0.0
0.0006714490359843908 0.9999997745780707 0.0
0.0005533458284042867 0.9999998469041853 0.0
0.0004570209643468305 0.9999998955659136 0.0
0.0003783449176498632 0.9999999284275591 0.0
0.0003139676907196068 0.9999999507121436 0.0
0.0002611795848158301 0.9999999658926118 0.0
0.0002177926268647075 0.9999999762831856 0.0
0.00018204151346864358 0.9999999834304436 0.0
0.00015250197289697965 0.9999999883715741 0.0
0.0001280241348125588 0.9999999918049105 0.0
0.00010767853297453542 0.9999999942026668 0.0
9.071256959797485e-5 0.9999999958856148 0.0
7.651554026759017e-5 0.999999997072686 0.0
6.459060092812981e-5 0.9999999979140273 0.0
5.4532325707236666e-5 0.9999999985131128 0.0
4.6008743981409584e-5 0.9999999989415977 0.0
3.8746952452084756e-5 0.9999999992493368 0.0
3.252157324946587e-5 0.9999999994711737 0.0
2.714547393691665e-5 0.9999999996315617 0.0
2.2462283444444395e-5 0.9999999997477229 0.0
1.834033241878335e-5 0.9999999998318161 0.0
1.4667721903124625e-5 0.999999999892429 0.0
1.1348283239125574e-5 0.9999999999356083 0.0
8.298238562288443e-6 0.9999999999655697 0.0
5.4434074982209944e-6 0.9999999999851846 0.0
2.7168337290905917e-6 0.9999999999963096 0.0
5.67270058447063e-8 0.9999999999999986 0.0
-4.277847671736915e-6 0.99999999999085 0.0
-0.034466004495047387 0.999405870772304 0.0
-0.03463054445412437 0.9994001828050718 0.0
-0.03471972043510188 0.9993970887554701 0.0
-0.03473061425848599 0.9993967102373453 0.0
-0.03465833360020269 0.9993992194874164 0.0
-0.03449637067251955 0.9994048230874335 0.0
-0.03423711596810166 0.9994137380935821 0.0
-0.03387251794005235 0.9994261616189568 0.0
-0.03339487260549046 0.9994422356913195 0.0
-0.03279771649458492 0.9994620101798471 0.0
-0.032076780783737144 0.9994854076646402 0.0
-0.03123094249450426 0.9995121951386612 0.0
-0.030263076497597775 0.9995419682038872 0.0
-0.029180677866353828 0.9995741533469441 0.0
-0.027996092390909992 0.9996080325861931 0.0
-0.026726168632589076 0.9996427921563896 0.0
-0.025391110319004484 0.9996775937855005 0.0
-0.024012428977461336 0.9997116600573398 0.0
-0.022610462576693083 0.9997443508127805 0.0
-0.0212025534965806 0.9997752005952261 0.0
-0.019802303216910247 0.9998039151690225 0.0
-0.01841965939360437 0.9998303436822787 0.0
-0.01706147162618822 0.9998544424994814 0.0
-0.015732251278712712 0.9998762404766419 0.0
-0.014434956428966677 0.9998958105887301 0.0
-0.01317169079251051 0.9999132495180104 0.0
-0.011944258210648042 0.9999286648035437 0.0
-0.010754552591188689 0.9999421681270191 0.0
-0.009604787163097095 0.9999538729679242 0.0
-0.008497581165665092 0.9999638949053775 0.0
-0.007418928416365499 0.9999724793718839 0.0
-0.006375736305920363 0.9999796747867216 0.0
-0.0053882199634681105 0.9999854834374471 0.0
-0.004459923348166228 0.9999900544924076 0.0
-0.0035940365232068772 0.9999935414298784 0.0
-0.0027931994932198774 0.9999960990106865 0.0
-0.002059349564698262 0.9999978795374369 0.0
-0.0013936188850046096 0.9999990289127301 0.0
-0.0007962821423067592 0.9999996829673246 0.0
-0.00026674990016911334 0.9999999644222448 0.0
0.0001963995101438409 0.999999980713616 0.0
0.0005953576354242138 0.9999998227746272 0.0
0.0009330011392973483 0.9999995647543423 0.0
0.0012127920106475131 0.9999992645674991 0.0
0.001438669135014406 0.9999989651150244 0.0
0.0016149365655796079 0.9999986959890944 0.0
0.001746152832013831 0.9999984754739815 0.0
0.001837024720781352 0.9999983126686641 0.0
0.001892308079639796 0.9999982095834631 0.0
0.001916717141158515 0.9999981630960132 0.0
0.0019136253718308252 0.9999981690172919 0.0
0.001833734098248631 0.999998318708215 0.0
0.001706070235460935 0.9999985446611168 0.0
0.0015529080096943213 0.99999879423763 0.0
0.0013904160045251648 0.9999990333712 0.0
0.0012295162159548121 0.9999992441446515 0.0
0.0010770197372311926 0.9999994200140745 0.0
0.0009367263879513731 0.9999995612717409 0.0
0.0008103503066412646 0.9999996716661363 0.0
0.0006982370705555155 0.999999756232467 0.0
0.0005998882567252558 0.9999998200670237 0.0
0.000514328106001553 0.999999867733291 0.0
0.0004403495348743573 0.9999999030461388 0.0
0.0003766723318137707 0.9999999290589747 0.0
0.0003220398094381802 0.9999999481451793 0.0
0.00027527372013961675 0.9999999621121888 0.0
0.00023530176036109049 0.9999999723165403 0.0
0.00020116769360010544 0.9999999797657793 0.0
0.00017203092374313522 0.9999999852026803 0.0
0.00014716005553063653 0.999999989171959 0.0
0.0001259233790671615 0.9999999920716514 0.0
0.00010777812575189486 0.9999999941919377 0.0
9.225961506650909e-5 0.9999999957440818 0.0
7.89709336924293e-5 0.9999999968817957 0.0
6.757347955873675e-5 0.9999999977169124 0.0
5.777850852661975e-5 0.9999999983308221 0.0
4.93397023054396e-5 0.9999999987827968 0.0
4.204670757671675e-5 0.9999999991160372 0.0
3.571956075575542e-5 0.9999999993620564 0.0
3.0203898355107215e-5 0.9999999995438623 0.0
2.5366851255026467e-5 0.9999999996782614 0.0
2.1093526539552183e-5 0.9999999997775315 0.0
1.7283989133222683e-5 0.9999999998506318 0.0
1.3850664975185682e-5 0.9999999999040795 0.0
1.0716096455673232e-5 0.9999999999425825 0.0
7.810989041107038e-6 0.9999999999694943 0.0
5.072494858234075e-6 0.9999999999871351 0.0
2.442684976505341e-6 0.9999999999970166 0.0
-1.3283288361187062e-7 0.9999999999999911 0.0
-4.468066747980453e-6 0.9999999999900184 0.0
-0.04478428923758929 0.9989966803936257 0.0
-0.04510682439530323 0.9989821692067238 0.0
-0.04543798568776771 0.9989671613504814 0.0
-0.04577549175445267 0.9989517527661875 0.0
-0.04611356603214629 0.9989362036825971 0.0
-0.04644329549127984 0.9989209279537142 0.0
-0.046753155290218125 0.9989064733349207 0.0
-0.04702965664977287 0.9988934935194064 0.0
-0.04725807489099238 0.9988827130136938 0.0
-0.04742321467390283 0.9988748864147067 0.0
-0.047510168184038304 0.9988707543617065 0.0
-0.04750501954714698 0.998870999237552 0.0
-0.047395447055235254 0.9988762043408753 0.0
-0.04717117718787937 0.9988868204369851 0.0
-0.04682425419638109 0.9989031430619051 0.0
-0.046349108292816 0.9989253025929721 0.0
-0.045742435016796146 0.9989532669943746 0.0
-0.04500293868283423 0.9989868545230759 0.0
-0.04413103428513589 0.999025751326223 0.0
-0.043128612193725345 0.999069528516531 0.0
-0.04199892297968123 0.9991176559687786 0.0
-0.0407465837572452 0.9991695131018128 0.0
-0.039377673796525285 0.9992243986244405 0.0
-0.03789987363727676 0.9992815416979735 0.0
-0.03632259964978917 0.9993401166543258 0.0
-0.034657089759109735 0.999399262622016 0.0
-0.03291640308244134 0.9994581083807935 0.0
-0.031115305543747463 0.9995158016564417 0.0
-0.029270025354073876 0.9995715410193369 0.0
-0.027397877026483056 0.9996246077075344 0.0
-0.025486557988048712 0.9996751649220469 0.0
-0.02355587358886534 0.9997225219126883 0.0